# vtk DataFile Version 3.0
Arquivo gerado por PZ
ASCII

DATASET UNSTRUCTURED_GRID
POINTS 256 float
-1 -1 0
-1 -0.75 0
-0.75 -1 0
-0.75 -0.75 0
-0.75 -1 0
-0.75 -0.75 0
-0.5 -1 0
-0.5 -0.75 0
-0.75 -0.75 0
-0.75 -0.5 0
-0.5 -0.75 0
-0.5 -0.5 0
-1 -0.75 0
-1 -0.5 0
-0.75 -0.75 0
-0.75 -0.5 0
-0.5 -1 0
-0.5 -0.75 0
-0.25 -1 0
-0.25 -0.75 0
-0.25 -1 0
-0.25 -0.75 0
0 -1 0
0 -0.75 0
-0.25 -0.75 0
-0.25 -0.5 0
0 -0.75 0
0 -0.5 0
-0.5 -0.75 0
-0.5 -0.5 0
-0.25 -0.75 0
-0.25 -0.5 0
-0.5 -0.5 0
-0.5 -0.25 0
-0.25 -0.5 0
-0.25 -0.25 0
-0.25 -0.5 0
-0.25 -0.25 0
0 -0.5 0
0 -0.25 0
-0.25 -0.25 0
-0.25 0 0
0 -0.25 0
0 0 0
-0.5 -0.25 0
-0.5 0 0
-0.25 -0.25 0
-0.25 0 0
-1 -0.5 0
-1 -0.25 0
-0.75 -0.5 0
-0.75 -0.25 0
-0.75 -0.5 0
-0.75 -0.25 0
-0.5 -0.5 0
-0.5 -0.25 0
-0.75 -0.25 0
-0.75 0 0
-0.5 -0.25 0
-0.5 0 0
-1 -0.25 0
-1 0 0
-0.75 -0.25 0
-0.75 0 0
0 -1 0
0 -0.75 0
0.25 -1 0
0.25 -0.75 0
0.25 -1 0
0.25 -0.75 0
0.5 -1 0
0.5 -0.75 0
0.25 -0.75 0
0.25 -0.5 0
0.5 -0.75 0
0.5 -0.5 0
0 -0.75 0
0 -0.5 0
0.25 -0.75 0
0.25 -0.5 0
0.5 -1 0
0.5 -0.75 0
0.75 -1 0
0.75 -0.75 0
0.75 -1 0
0.75 -0.75 0
1 -1 0
1 -0.75 0
0.75 -0.75 0
0.75 -0.5 0
1 -0.75 0
1 -0.5 0
0.5 -0.75 0
0.5 -0.5 0
0.75 -0.75 0
0.75 -0.5 0
0.5 -0.5 0
0.5 -0.25 0
0.75 -0.5 0
0.75 -0.25 0
0.75 -0.5 0
0.75 -0.25 0
1 -0.5 0
1 -0.25 0
0.75 -0.25 0
0.75 0 0
1 -0.25 0
1 0 0
0.5 -0.25 0
0.5 0 0
0.75 -0.25 0
0.75 0 0
0 -0.5 0
0 -0.25 0
0.25 -0.5 0
0.25 -0.25 0
0.25 -0.5 0
0.25 -0.25 0
0.5 -0.5 0
0.5 -0.25 0
0.25 -0.25 0
0.25 0 0
0.5 -0.25 0
0.5 0 0
0 -0.25 0
0 0 0
0.25 -0.25 0
0.25 0 0
-1 0 0
-1 0.25 0
-0.75 0 0
-0.75 0.25 0
-0.75 0 0
-0.75 0.25 0
-0.5 0 0
-0.5 0.25 0
-0.75 0.25 0
-0.75 0.5 0
-0.5 0.25 0
-0.5 0.5 0
-1 0.25 0
-1 0.5 0
-0.75 0.25 0
-0.75 0.5 0
-0.5 0 0
-0.5 0.25 0
-0.25 0 0
-0.25 0.25 0
-0.25 0 0
-0.25 0.25 0
0 0 0
0 0.25 0
-0.25 0.25 0
-0.25 0.5 0
0 0.25 0
0 0.5 0
-0.5 0.25 0
-0.5 0.5 0
-0.25 0.25 0
-0.25 0.5 0
-0.5 0.5 0
-0.5 0.75 0
-0.25 0.5 0
-0.25 0.75 0
-0.25 0.5 0
-0.25 0.75 0
0 0.5 0
0 0.75 0
-0.25 0.75 0
-0.25 1 0
0 0.75 0
0 1 0
-0.5 0.75 0
-0.5 1 0
-0.25 0.75 0
-0.25 1 0
-1 0.5 0
-1 0.75 0
-0.75 0.5 0
-0.75 0.75 0
-0.75 0.5 0
-0.75 0.75 0
-0.5 0.5 0
-0.5 0.75 0
-0.75 0.75 0
-0.75 1 0
-0.5 0.75 0
-0.5 1 0
-1 0.75 0
-1 1 0
-0.75 0.75 0
-0.75 1 0
0 0 0
0 0.25 0
0.25 0 0
0.25 0.25 0
0.25 0 0
0.25 0.25 0
0.5 0 0
0.5 0.25 0
0.25 0.25 0
0.25 0.5 0
0.5 0.25 0
0.5 0.5 0
0 0.25 0
0 0.5 0
0.25 0.25 0
0.25 0.5 0
0.5 0 0
0.5 0.25 0
0.75 0 0
0.75 0.25 0
0.75 0 0
0.75 0.25 0
1 0 0
1 0.25 0
0.75 0.25 0
0.75 0.5 0
1 0.25 0
1 0.5 0
0.5 0.25 0
0.5 0.5 0
0.75 0.25 0
0.75 0.5 0
0.5 0.5 0
0.5 0.75 0
0.75 0.5 0
0.75 0.75 0
0.75 0.5 0
0.75 0.75 0
1 0.5 0
1 0.75 0
0.75 0.75 0
0.75 1 0
1 0.75 0
1 1 0
0.5 0.75 0
0.5 1 0
0.75 0.75 0
0.75 1 0
0 0.5 0
0 0.75 0
0.25 0.5 0
0.25 0.75 0
0.25 0.5 0
0.25 0.75 0
0.5 0.5 0
0.5 0.75 0
0.25 0.75 0
0.25 1 0
0.5 0.75 0
0.5 1 0
0 0.75 0
0 1 0
0.25 0.75 0
0.25 1 0

CELLS 64 320
4 0 2 3 1
4 4 6 7 5
4 8 10 11 9
4 12 14 15 13
4 16 18 19 17
4 20 22 23 21
4 24 26 27 25
4 28 30 31 29
4 32 34 35 33
4 36 38 39 37
4 40 42 43 41
4 44 46 47 45
4 48 50 51 49
4 52 54 55 53
4 56 58 59 57
4 60 62 63 61
4 64 66 67 65
4 68 70 71 69
4 72 74 75 73
4 76 78 79 77
4 80 82 83 81
4 84 86 87 85
4 88 90 91 89
4 92 94 95 93
4 96 98 99 97
4 100 102 103 101
4 104 106 107 105
4 108 110 111 109
4 112 114 115 113
4 116 118 119 117
4 120 122 123 121
4 124 126 127 125
4 128 130 131 129
4 132 134 135 133
4 136 138 139 137
4 140 142 143 141
4 144 146 147 145
4 148 150 151 149
4 152 154 155 153
4 156 158 159 157
4 160 162 163 161
4 164 166 167 165
4 168 170 171 169
4 172 174 175 173
4 176 178 179 177
4 180 182 183 181
4 184 186 187 185
4 188 190 191 189
4 192 194 195 193
4 196 198 199 197
4 200 202 203 201
4 204 206 207 205
4 208 210 211 209
4 212 214 215 213
4 216 218 219 217
4 220 222 223 221
4 224 226 227 225
4 228 230 231 229
4 232 234 235 233
4 236 238 239 237
4 240 242 243 241
4 244 246 247 245
4 248 250 251 249
4 252 254 255 253

CELL_TYPES 64
9
9
9
9
9
9
9
9
9
9
9
9
9
9
9
9
9
9
9
9
9
9
9
9
9
9
9
9
9
9
9
9
9
9
9
9
9
9
9
9
9
9
9
9
9
9
9
9
9
9
9
9
9
9
9
9
9
9
9
9
9
9
9
9

POINT_DATA 256
SCALARS Pressure float
LOOKUP_TABLE default
6.30532e-18 
2.22149e-12 
2.22149e-12 
0.50028 
2.22149e-12 
0.50028 
3.14167e-12 
0.707503 
0.50028 
0.707503 
0.707503 
1.00056 
2.22149e-12 
3.14167e-12 
0.50028 
0.707503 
3.14167e-12 
0.707503 
2.22149e-12 
0.50028 
2.22149e-12 
0.50028 
0 
9.23665e-17 
0.50028 
0.707503 
9.23665e-17 
1.45145e-16 
0.707503 
1.00056 
0.50028 
0.707503 
1.00056 
0.707503 
0.707503 
0.50028 
0.707503 
0.50028 
1.45145e-16 
2.71e-17 
0.50028 
-5.52762e-17 
2.71e-17 
-1.6254e-16 
0.707503 
9.34023e-17 
0.50028 
-5.52762e-17 
3.14167e-12 
2.22149e-12 
0.707503 
0.50028 
0.707503 
0.50028 
1.00056 
0.707503 
0.50028 
2.2488e-17 
0.707503 
9.34023e-17 
2.22149e-12 
0 
0.50028 
2.2488e-17 
0 
9.23665e-17 
-2.22149e-12 
-0.50028 
-2.22149e-12 
-0.50028 
-3.14167e-12 
-0.707503 
-0.50028 
-0.707503 
-0.707503 
-1.00056 
9.23665e-17 
1.45145e-16 
-0.50028 
-0.707503 
-3.14167e-12 
-0.707503 
-2.22149e-12 
-0.50028 
-2.22149e-12 
-0.50028 
-6.30532e-18 
-2.22149e-12 
-0.50028 
-0.707503 
-2.22149e-12 
-3.14167e-12 
-0.707503 
-1.00056 
-0.50028 
-0.707503 
-1.00056 
-0.707503 
-0.707503 
-0.50028 
-0.707503 
-0.50028 
-3.14167e-12 
-2.22149e-12 
-0.50028 
-3.0592e-16 
-2.22149e-12 
0 
-0.707503 
-1.88842e-16 
-0.50028 
-3.0592e-16 
1.45145e-16 
2.71e-17 
-0.707503 
-0.50028 
-0.707503 
-0.50028 
-1.00056 
-0.707503 
-0.50028 
-2.16723e-16 
-0.707503 
-1.88842e-16 
2.71e-17 
-1.6254e-16 
-0.50028 
-2.16723e-16 
0 
-2.22149e-12 
2.2488e-17 
-0.50028 
2.2488e-17 
-0.50028 
9.34023e-17 
-0.707503 
-0.50028 
-0.707503 
-0.707503 
-1.00056 
-2.22149e-12 
-3.14167e-12 
-0.50028 
-0.707503 
9.34023e-17 
-0.707503 
-5.52762e-17 
-0.50028 
-5.52762e-17 
-0.50028 
-1.6254e-16 
-3.6681e-16 
-0.50028 
-0.707503 
-3.6681e-16 
-4.55688e-16 
-0.707503 
-1.00056 
-0.50028 
-0.707503 
-1.00056 
-0.707503 
-0.707503 
-0.50028 
-0.707503 
-0.50028 
-4.55688e-16 
-4.00942e-16 
-0.50028 
-2.22149e-12 
-4.00942e-16 
0 
-0.707503 
-3.14167e-12 
-0.50028 
-2.22149e-12 
-3.14167e-12 
-2.22149e-12 
-0.707503 
-0.50028 
-0.707503 
-0.50028 
-1.00056 
-0.707503 
-0.50028 
-2.22149e-12 
-0.707503 
-3.14167e-12 
-2.22149e-12 
-6.30532e-18 
-0.50028 
-2.22149e-12 
-1.6254e-16 
-3.6681e-16 
-2.16723e-16 
0.50028 
-2.16723e-16 
0.50028 
-1.88842e-16 
0.707503 
0.50028 
0.707503 
0.707503 
1.00056 
-3.6681e-16 
-4.55688e-16 
0.50028 
0.707503 
-1.88842e-16 
0.707503 
-3.0592e-16 
0.50028 
-3.0592e-16 
0.50028 
0 
2.22149e-12 
0.50028 
0.707503 
2.22149e-12 
3.14167e-12 
0.707503 
1.00056 
0.50028 
0.707503 
1.00056 
0.707503 
0.707503 
0.50028 
0.707503 
0.50028 
3.14167e-12 
2.22149e-12 
0.50028 
2.22149e-12 
2.22149e-12 
6.30532e-18 
0.707503 
3.14167e-12 
0.50028 
2.22149e-12 
-4.55688e-16 
-4.00942e-16 
0.707503 
0.50028 
0.707503 
0.50028 
1.00056 
0.707503 
0.50028 
2.22149e-12 
0.707503 
3.14167e-12 
-4.00942e-16 
0 
0.50028 
2.22149e-12 

SCALARS ExactPressure float
LOOKUP_TABLE default
0 
8.65927e-17 
8.65927e-17 
0.5 
8.65927e-17 
0.5 
1.22461e-16 
0.707107 
0.5 
0.707107 
0.707107 
1 
8.65927e-17 
1.22461e-16 
0.5 
0.707107 
1.22461e-16 
0.707107 
8.65927e-17 
0.5 
8.65927e-17 
0.5 
0 
0 
0.5 
0.707107 
0 
0 
0.707107 
1 
0.5 
0.707107 
1 
0.707107 
0.707107 
0.5 
0.707107 
0.5 
0 
0 
0.5 
0 
0 
0 
0.707107 
0 
0.5 
0 
1.22461e-16 
8.65927e-17 
0.707107 
0.5 
0.707107 
0.5 
1 
0.707107 
0.5 
0 
0.707107 
0 
8.65927e-17 
0 
0.5 
0 
0 
0 
-8.65927e-17 
-0.5 
-8.65927e-17 
-0.5 
-1.22461e-16 
-0.707107 
-0.5 
-0.707107 
-0.707107 
-1 
0 
0 
-0.5 
-0.707107 
-1.22461e-16 
-0.707107 
-8.65927e-17 
-0.5 
-8.65927e-17 
-0.5 
0 
-8.65927e-17 
-0.5 
-0.707107 
-8.65927e-17 
-1.22461e-16 
-0.707107 
-1 
-0.5 
-0.707107 
-1 
-0.707107 
-0.707107 
-0.5 
-0.707107 
-0.5 
-1.22461e-16 
-8.65927e-17 
-0.5 
0 
-8.65927e-17 
0 
-0.707107 
0 
-0.5 
0 
0 
0 
-0.707107 
-0.5 
-0.707107 
-0.5 
-1 
-0.707107 
-0.5 
0 
-0.707107 
0 
0 
0 
-0.5 
0 
0 
-8.65927e-17 
0 
-0.5 
0 
-0.5 
0 
-0.707107 
-0.5 
-0.707107 
-0.707107 
-1 
-8.65927e-17 
-1.22461e-16 
-0.5 
-0.707107 
0 
-0.707107 
0 
-0.5 
0 
-0.5 
0 
0 
-0.5 
-0.707107 
0 
0 
-0.707107 
-1 
-0.5 
-0.707107 
-1 
-0.707107 
-0.707107 
-0.5 
-0.707107 
-0.5 
0 
0 
-0.5 
-8.65927e-17 
0 
0 
-0.707107 
-1.22461e-16 
-0.5 
-8.65927e-17 
-1.22461e-16 
-8.65927e-17 
-0.707107 
-0.5 
-0.707107 
-0.5 
-1 
-0.707107 
-0.5 
-8.65927e-17 
-0.707107 
-1.22461e-16 
-8.65927e-17 
0 
-0.5 
-8.65927e-17 
0 
0 
0 
0.5 
0 
0.5 
0 
0.707107 
0.5 
0.707107 
0.707107 
1 
0 
0 
0.5 
0.707107 
0 
0.707107 
0 
0.5 
0 
0.5 
0 
8.65927e-17 
0.5 
0.707107 
8.65927e-17 
1.22461e-16 
0.707107 
1 
0.5 
0.707107 
1 
0.707107 
0.707107 
0.5 
0.707107 
0.5 
1.22461e-16 
8.65927e-17 
0.5 
8.65927e-17 
8.65927e-17 
0 
0.707107 
1.22461e-16 
0.5 
8.65927e-17 
0 
0 
0.707107 
0.5 
0.707107 
0.5 
1 
0.707107 
0.5 
8.65927e-17 
0.707107 
1.22461e-16 
0 
0 
0.5 
8.65927e-17 

SCALARS POrder float
LOOKUP_TABLE default
2 
2 
2 
2 
2 
2 
2 
2 
2 
2 
2 
2 
2 
2 
2 
2 
2 
2 
2 
2 
2 
2 
2 
2 
2 
2 
2 
2 
2 
2 
2 
2 
2 
2 
2 
2 
2 
2 
2 
2 
2 
2 
2 
2 
2 
2 
2 
2 
2 
2 
2 
2 
2 
2 
2 
2 
2 
2 
2 
2 
2 
2 
2 
2 
2 
2 
2 
2 
2 
2 
2 
2 
2 
2 
2 
2 
2 
2 
2 
2 
2 
2 
2 
2 
2 
2 
2 
2 
2 
2 
2 
2 
2 
2 
2 
2 
2 
2 
2 
2 
2 
2 
2 
2 
2 
2 
2 
2 
2 
2 
2 
2 
2 
2 
2 
2 
2 
2 
2 
2 
2 
2 
2 
2 
2 
2 
2 
2 
2 
2 
2 
2 
2 
2 
2 
2 
2 
2 
2 
2 
2 
2 
2 
2 
2 
2 
2 
2 
2 
2 
2 
2 
2 
2 
2 
2 
2 
2 
2 
2 
2 
2 
2 
2 
2 
2 
2 
2 
2 
2 
2 
2 
2 
2 
2 
2 
2 
2 
2 
2 
2 
2 
2 
2 
2 
2 
2 
2 
2 
2 
2 
2 
2 
2 
2 
2 
2 
2 
2 
2 
2 
2 
2 
2 
2 
2 
2 
2 
2 
2 
2 
2 
2 
2 
2 
2 
2 
2 
2 
2 
2 
2 
2 
2 
2 
2 
2 
2 
2 
2 
2 
2 
2 
2 
2 
2 
2 
2 
2 
2 
2 
2 
2 
2 
2 
2 
2 
2 
2 
2 
2 
2 
2 
2 
2 
2 

VECTORS Flux float
1.03457e-11 1.03457e-11 0 
2.32986 7.42619e-12 0 
7.42619e-12 2.32986 0 
1.67238 1.67238 0 
7.20502e-12 2.32986 0 
1.62254 1.67238 0 
1.56356e-13 3.29492 0 
0.0352394 2.3651 0 
1.62254 1.62254 0 
2.29462 0.0352394 0 
0.0352394 2.29462 0 
0.049836 0.049836 0 
2.32986 7.20502e-12 0 
3.29492 1.56356e-13 0 
1.67238 1.62254 0 
2.3651 0.0352394 0 
-1.5635e-13 3.29492 0 
-0.0352394 2.3651 0 
-7.20503e-12 2.32986 0 
-1.62254 1.67238 0 
-7.42614e-12 2.32986 0 
-1.67238 1.67238 0 
-1.03458e-11 6.23254e-16 0 
-2.32986 1.15678e-16 0 
-1.67238 1.62254 0 
-2.3651 0.0352394 0 
-2.32986 4.73718e-16 0 
-3.29492 -5.14883e-17 0 
-0.0352394 2.29462 0 
-0.049836 0.049836 0 
-1.62254 1.62254 0 
-2.29462 0.0352394 0 
-0.049836 -0.049836 0 
-0.0352394 -2.29462 0 
-2.29462 -0.0352394 0 
-1.62254 -1.62254 0 
-2.3651 -0.0352394 0 
-1.67238 -1.62254 0 
-3.29492 -6.24388e-16 0 
-2.32986 -3.19974e-16 0 
-1.67238 -1.67238 0 
-6.3376e-16 -2.32986 0 
-2.32986 -8.65688e-16 0 
-2.24349e-16 -6.5143e-16 0 
-0.0352394 -2.3651 0 
-9.61434e-16 -3.29492 0 
-1.62254 -1.67238 0 
-2.27994e-16 -2.32986 0 
3.29492 -1.5635e-13 0 
2.32986 -7.20503e-12 0 
2.3651 -0.0352394 0 
1.67238 -1.62254 0 
2.29462 -0.0352394 0 
1.62254 -1.62254 0 
0.049836 -0.049836 0 
0.0352394 -2.29462 0 
1.62254 -1.67238 0 
-5.70394e-16 -2.32986 0 
0.0352394 -2.3651 0 
1.13771e-15 -3.29492 0 
2.32986 -7.42614e-12 0 
7.46533e-16 -1.03458e-11 0 
1.67238 -1.67238 0 
-5.66629e-16 -2.32986 0 
-1.03458e-11 6.23254e-16 0 
-2.32986 1.15678e-16 0 
-7.42614e-12 -2.32986 0 
-1.67238 -1.67238 0 
-7.20503e-12 -2.32986 0 
-1.62254 -1.67238 0 
-1.5635e-13 -3.29492 0 
-0.0352394 -2.3651 0 
-1.62254 -1.62254 0 
-2.29462 -0.0352394 0 
-0.0352394 -2.29462 0 
-0.049836 -0.049836 0 
-2.32986 4.73718e-16 0 
-3.29492 -5.14883e-17 0 
-1.67238 -1.62254 0 
-2.3651 -0.0352394 0 
1.56356e-13 -3.29492 0 
0.0352394 -2.3651 0 
7.20502e-12 -2.32986 0 
1.62254 -1.67238 0 
7.42619e-12 -2.32986 0 
1.67238 -1.67238 0 
1.03457e-11 -1.03457e-11 0 
2.32986 -7.42619e-12 0 
1.67238 -1.62254 0 
2.3651 -0.0352394 0 
2.32986 -7.20502e-12 0 
3.29492 -1.56356e-13 0 
0.0352394 -2.29462 0 
0.049836 -0.049836 0 
1.62254 -1.62254 0 
2.29462 -0.0352394 0 
0.049836 0.049836 0 
0.0352394 2.29462 0 
2.29462 0.0352394 0 
1.62254 1.62254 0 
2.3651 0.0352394 0 
1.67238 1.62254 0 
3.29492 1.5635e-13 0 
2.32986 7.20503e-12 0 
1.67238 1.67238 0 
1.60889e-15 2.32986 0 
2.32986 7.42614e-12 0 
8.38472e-16 1.03458e-11 0 
0.0352394 2.3651 0 
7.03005e-16 3.29492 0 
1.62254 1.67238 0 
-1.63963e-15 2.32986 0 
-3.29492 -6.24388e-16 0 
-2.32986 -3.19974e-16 0 
-2.3651 0.0352394 0 
-1.67238 1.62254 0 
-2.29462 0.0352394 0 
-1.62254 1.62254 0 
-0.049836 0.049836 0 
-0.0352394 2.29462 0 
-1.62254 1.67238 0 
-1.81795e-16 2.32986 0 
-0.0352394 2.3651 0 
4.04847e-16 3.29492 0 
-2.32986 -8.65688e-16 0 
-2.90084e-16 -6.5143e-16 0 
-1.67238 1.67238 0 
-1.43385e-16 2.32986 0 
7.46533e-16 -1.03458e-11 0 
-2.32986 -7.42614e-12 0 
-5.66629e-16 -2.32986 0 
-1.67238 -1.67238 0 
-5.70394e-16 -2.32986 0 
-1.62254 -1.67238 0 
1.13771e-15 -3.29492 0 
-0.0352394 -2.3651 0 
-1.62254 -1.62254 0 
-2.29462 -0.0352394 0 
-0.0352394 -2.29462 0 
-0.049836 -0.049836 0 
-2.32986 -7.20503e-12 0 
-3.29492 -1.5635e-13 0 
-1.67238 -1.62254 0 
-2.3651 -0.0352394 0 
-9.61434e-16 -3.29492 0 
0.0352394 -2.3651 0 
-2.27994e-16 -2.32986 0 
1.62254 -1.67238 0 
-6.3376e-16 -2.32986 0 
1.67238 -1.67238 0 
-2.24349e-16 -6.64865e-16 0 
2.32986 -9.69298e-16 0 
1.67238 -1.62254 0 
2.3651 -0.0352394 0 
2.32986 4.05573e-16 0 
3.29492 -1.1166e-15 0 
0.0352394 -2.29462 0 
0.049836 -0.049836 0 
1.62254 -1.62254 0 
2.29462 -0.0352394 0 
0.049836 0.049836 0 
0.0352394 2.29462 0 
2.29462 0.0352394 0 
1.62254 1.62254 0 
2.3651 0.0352394 0 
1.67238 1.62254 0 
3.29492 1.14131e-15 0 
2.32986 -7.03343e-16 0 
1.67238 1.67238 0 
7.42614e-12 2.32986 0 
2.32986 2.19746e-15 0 
1.03458e-11 1.01008e-15 0 
0.0352394 2.3651 0 
1.5635e-13 3.29492 0 
1.62254 1.67238 0 
7.20503e-12 2.32986 0 
-3.29492 1.56356e-13 0 
-2.32986 7.20502e-12 0 
-2.3651 0.0352394 0 
-1.67238 1.62254 0 
-2.29462 0.0352394 0 
-1.62254 1.62254 0 
-0.049836 0.049836 0 
-0.0352394 2.29462 0 
-1.62254 1.67238 0 
-7.20502e-12 2.32986 0 
-0.0352394 2.3651 0 
-1.56356e-13 3.29492 0 
-2.32986 7.42619e-12 0 
-1.03457e-11 1.03457e-11 0 
-1.67238 1.67238 0 
-7.42619e-12 2.32986 0 
-2.90084e-16 -6.64865e-16 0 
2.32986 -9.69298e-16 0 
-1.43385e-16 2.32986 0 
1.67238 1.67238 0 
-1.81795e-16 2.32986 0 
1.62254 1.67238 0 
4.04847e-16 3.29492 0 
0.0352394 2.3651 0 
1.62254 1.62254 0 
2.29462 0.0352394 0 
0.0352394 2.29462 0 
0.049836 0.049836 0 
2.32986 4.05573e-16 0 
3.29492 -1.1166e-15 0 
1.67238 1.62254 0 
2.3651 0.0352394 0 
7.03005e-16 3.29492 0 
-0.0352394 2.3651 0 
-1.63963e-15 2.32986 0 
-1.62254 1.67238 0 
1.60889e-15 2.32986 0 
-1.67238 1.67238 0 
8.38472e-16 1.03458e-11 0 
-2.32986 7.42614e-12 0 
-1.67238 1.62254 0 
-2.3651 0.0352394 0 
-2.32986 7.20503e-12 0 
-3.29492 1.5635e-13 0 
-0.0352394 2.29462 0 
-0.049836 0.049836 0 
-1.62254 1.62254 0 
-2.29462 0.0352394 0 
-0.049836 -0.049836 0 
-0.0352394 -2.29462 0 
-2.29462 -0.0352394 0 
-1.62254 -1.62254 0 
-2.3651 -0.0352394 0 
-1.67238 -1.62254 0 
-3.29492 -1.56356e-13 0 
-2.32986 -7.20502e-12 0 
-1.67238 -1.67238 0 
-7.42619e-12 -2.32986 0 
-2.32986 -7.42619e-12 0 
-1.03457e-11 -1.03457e-11 0 
-0.0352394 -2.3651 0 
-1.56356e-13 -3.29492 0 
-1.62254 -1.67238 0 
-7.20502e-12 -2.32986 0 
3.29492 1.14131e-15 0 
2.32986 -7.03343e-16 0 
2.3651 -0.0352394 0 
1.67238 -1.62254 0 
2.29462 -0.0352394 0 
1.62254 -1.62254 0 
0.049836 -0.049836 0 
0.0352394 -2.29462 0 
1.62254 -1.67238 0 
7.20503e-12 -2.32986 0 
0.0352394 -2.3651 0 
1.5635e-13 -3.29492 0 
2.32986 2.19746e-15 0 
1.03458e-11 1.01008e-15 0 
1.67238 -1.67238 0 
7.42614e-12 -2.32986 0 

