# vtk DataFile Version 3.0
Arquivo gerado por PZ
ASCII

DATASET UNSTRUCTURED_GRID
POINTS 1024 float
-0.25 -0.5 0
-0.25 -0.375 0
-0.125 -0.5 0
-0.125 -0.375 0
-0.125 -0.5 0
-0.125 -0.375 0
0 -0.5 0
0 -0.375 0
-0.125 -0.375 0
-0.125 -0.25 0
0 -0.375 0
0 -0.25 0
-0.25 -0.375 0
-0.25 -0.25 0
-0.125 -0.375 0
-0.125 -0.25 0
-0.5 -0.25 0
-0.5 -0.125 0
-0.375 -0.25 0
-0.375 -0.125 0
-0.375 -0.25 0
-0.375 -0.125 0
-0.25 -0.25 0
-0.25 -0.125 0
-0.375 -0.125 0
-0.375 0 0
-0.25 -0.125 0
-0.25 0 0
-0.5 -0.125 0
-0.5 0 0
-0.375 -0.125 0
-0.375 0 0
0 -0.5 0
0 -0.375 0
0.125 -0.5 0
0.125 -0.375 0
0.125 -0.5 0
0.125 -0.375 0
0.25 -0.5 0
0.25 -0.375 0
0.125 -0.375 0
0.125 -0.25 0
0.25 -0.375 0
0.25 -0.25 0
0 -0.375 0
0 -0.25 0
0.125 -0.375 0
0.125 -0.25 0
0.25 -0.25 0
0.25 -0.125 0
0.375 -0.25 0
0.375 -0.125 0
0.375 -0.25 0
0.375 -0.125 0
0.5 -0.25 0
0.5 -0.125 0
0.375 -0.125 0
0.375 0 0
0.5 -0.125 0
0.5 0 0
0.25 -0.125 0
0.25 0 0
0.375 -0.125 0
0.375 0 0
-0.5 0 0
-0.5 0.125 0
-0.375 0 0
-0.375 0.125 0
-0.375 0 0
-0.375 0.125 0
-0.25 0 0
-0.25 0.125 0
-0.375 0.125 0
-0.375 0.25 0
-0.25 0.125 0
-0.25 0.25 0
-0.5 0.125 0
-0.5 0.25 0
-0.375 0.125 0
-0.375 0.25 0
-0.25 0.25 0
-0.25 0.375 0
-0.125 0.25 0
-0.125 0.375 0
-0.125 0.25 0
-0.125 0.375 0
0 0.25 0
0 0.375 0
-0.125 0.375 0
-0.125 0.5 0
0 0.375 0
0 0.5 0
-0.25 0.375 0
-0.25 0.5 0
-0.125 0.375 0
-0.125 0.5 0
0.25 0 0
0.25 0.125 0
0.375 0 0
0.375 0.125 0
0.375 0 0
0.375 0.125 0
0.5 0 0
0.5 0.125 0
0.375 0.125 0
0.375 0.25 0
0.5 0.125 0
0.5 0.25 0
0.25 0.125 0
0.25 0.25 0
0.375 0.125 0
0.375 0.25 0
0 0.25 0
0 0.375 0
0.125 0.25 0
0.125 0.375 0
0.125 0.25 0
0.125 0.375 0
0.25 0.25 0
0.25 0.375 0
0.125 0.375 0
0.125 0.5 0
0.25 0.375 0
0.25 0.5 0
0 0.375 0
0 0.5 0
0.125 0.375 0
0.125 0.5 0
-1 -0.5 0
-1 -0.375 0
-0.875 -0.5 0
-0.875 -0.375 0
-0.875 -0.5 0
-0.875 -0.375 0
-0.75 -0.5 0
-0.75 -0.375 0
-0.875 -0.375 0
-0.875 -0.25 0
-0.75 -0.375 0
-0.75 -0.25 0
-1 -0.375 0
-1 -0.25 0
-0.875 -0.375 0
-0.875 -0.25 0
-0.75 -0.25 0
-0.75 -0.125 0
-0.625 -0.25 0
-0.625 -0.125 0
-0.625 -0.25 0
-0.625 -0.125 0
-0.5 -0.25 0
-0.5 -0.125 0
-0.625 -0.125 0
-0.625 0 0
-0.5 -0.125 0
-0.5 0 0
-0.75 -0.125 0
-0.75 0 0
-0.625 -0.125 0
-0.625 0 0
-0.5 -1 0
-0.5 -0.875 0
-0.375 -1 0
-0.375 -0.875 0
-0.375 -1 0
-0.375 -0.875 0
-0.25 -1 0
-0.25 -0.875 0
-0.375 -0.875 0
-0.375 -0.75 0
-0.25 -0.875 0
-0.25 -0.75 0
-0.5 -0.875 0
-0.5 -0.75 0
-0.375 -0.875 0
-0.375 -0.75 0
-0.25 -0.75 0
-0.25 -0.625 0
-0.125 -0.75 0
-0.125 -0.625 0
-0.125 -0.75 0
-0.125 -0.625 0
0 -0.75 0
0 -0.625 0
-0.125 -0.625 0
-0.125 -0.5 0
0 -0.625 0
0 -0.5 0
-0.25 -0.625 0
-0.25 -0.5 0
-0.125 -0.625 0
-0.125 -0.5 0
-1 -1 0
-1 -0.875 0
-0.875 -1 0
-0.875 -0.875 0
-0.875 -1 0
-0.875 -0.875 0
-0.75 -1 0
-0.75 -0.875 0
-0.875 -0.875 0
-0.875 -0.75 0
-0.75 -0.875 0
-0.75 -0.75 0
-1 -0.875 0
-1 -0.75 0
-0.875 -0.875 0
-0.875 -0.75 0
-0.75 -1 0
-0.75 -0.875 0
-0.625 -1 0
-0.625 -0.875 0
-0.625 -1 0
-0.625 -0.875 0
-0.5 -1 0
-0.5 -0.875 0
-0.625 -0.875 0
-0.625 -0.75 0
-0.5 -0.875 0
-0.5 -0.75 0
-0.75 -0.875 0
-0.75 -0.75 0
-0.625 -0.875 0
-0.625 -0.75 0
-1 -0.75 0
-1 -0.625 0
-0.875 -0.75 0
-0.875 -0.625 0
-0.875 -0.75 0
-0.875 -0.625 0
-0.75 -0.75 0
-0.75 -0.625 0
-0.875 -0.625 0
-0.875 -0.5 0
-0.75 -0.625 0
-0.75 -0.5 0
-1 -0.625 0
-1 -0.5 0
-0.875 -0.625 0
-0.875 -0.5 0
0.25 -1 0
0.25 -0.875 0
0.375 -1 0
0.375 -0.875 0
0.375 -1 0
0.375 -0.875 0
0.5 -1 0
0.5 -0.875 0
0.375 -0.875 0
0.375 -0.75 0
0.5 -0.875 0
0.5 -0.75 0
0.25 -0.875 0
0.25 -0.75 0
0.375 -0.875 0
0.375 -0.75 0
0 -0.75 0
0 -0.625 0
0.125 -0.75 0
0.125 -0.625 0
0.125 -0.75 0
0.125 -0.625 0
0.25 -0.75 0
0.25 -0.625 0
0.125 -0.625 0
0.125 -0.5 0
0.25 -0.625 0
0.25 -0.5 0
0 -0.625 0
0 -0.5 0
0.125 -0.625 0
0.125 -0.5 0
-0.75 0 0
-0.75 0.125 0
-0.625 0 0
-0.625 0.125 0
-0.625 0 0
-0.625 0.125 0
-0.5 0 0
-0.5 0.125 0
-0.625 0.125 0
-0.625 0.25 0
-0.5 0.125 0
-0.5 0.25 0
-0.75 0.125 0
-0.75 0.25 0
-0.625 0.125 0
-0.625 0.25 0
-1 0.25 0
-1 0.375 0
-0.875 0.25 0
-0.875 0.375 0
-0.875 0.25 0
-0.875 0.375 0
-0.75 0.25 0
-0.75 0.375 0
-0.875 0.375 0
-0.875 0.5 0
-0.75 0.375 0
-0.75 0.5 0
-1 0.375 0
-1 0.5 0
-0.875 0.375 0
-0.875 0.5 0
0.75 -0.5 0
0.75 -0.375 0
0.875 -0.5 0
0.875 -0.375 0
0.875 -0.5 0
0.875 -0.375 0
1 -0.5 0
1 -0.375 0
0.875 -0.375 0
0.875 -0.25 0
1 -0.375 0
1 -0.25 0
0.75 -0.375 0
0.75 -0.25 0
0.875 -0.375 0
0.875 -0.25 0
0.5 -0.25 0
0.5 -0.125 0
0.625 -0.25 0
0.625 -0.125 0
0.625 -0.25 0
0.625 -0.125 0
0.75 -0.25 0
0.75 -0.125 0
0.625 -0.125 0
0.625 0 0
0.75 -0.125 0
0.75 0 0
0.5 -0.125 0
0.5 0 0
0.625 -0.125 0
0.625 0 0
0.5 -1 0
0.5 -0.875 0
0.625 -1 0
0.625 -0.875 0
0.625 -1 0
0.625 -0.875 0
0.75 -1 0
0.75 -0.875 0
0.625 -0.875 0
0.625 -0.75 0
0.75 -0.875 0
0.75 -0.75 0
0.5 -0.875 0
0.5 -0.75 0
0.625 -0.875 0
0.625 -0.75 0
0.75 -1 0
0.75 -0.875 0
0.875 -1 0
0.875 -0.875 0
0.875 -1 0
0.875 -0.875 0
1 -1 0
1 -0.875 0
0.875 -0.875 0
0.875 -0.75 0
1 -0.875 0
1 -0.75 0
0.75 -0.875 0
0.75 -0.75 0
0.875 -0.875 0
0.875 -0.75 0
0.75 -0.75 0
0.75 -0.625 0
0.875 -0.75 0
0.875 -0.625 0
0.875 -0.75 0
0.875 -0.625 0
1 -0.75 0
1 -0.625 0
0.875 -0.625 0
0.875 -0.5 0
1 -0.625 0
1 -0.5 0
0.75 -0.625 0
0.75 -0.5 0
0.875 -0.625 0
0.875 -0.5 0
0.5 0 0
0.5 0.125 0
0.625 0 0
0.625 0.125 0
0.625 0 0
0.625 0.125 0
0.75 0 0
0.75 0.125 0
0.625 0.125 0
0.625 0.25 0
0.75 0.125 0
0.75 0.25 0
0.5 0.125 0
0.5 0.25 0
0.625 0.125 0
0.625 0.25 0
0.75 0.25 0
0.75 0.375 0
0.875 0.25 0
0.875 0.375 0
0.875 0.25 0
0.875 0.375 0
1 0.25 0
1 0.375 0
0.875 0.375 0
0.875 0.5 0
1 0.375 0
1 0.5 0
0.75 0.375 0
0.75 0.5 0
0.875 0.375 0
0.875 0.5 0
0 0.5 0
0 0.625 0
0.125 0.5 0
0.125 0.625 0
0.125 0.5 0
0.125 0.625 0
0.25 0.5 0
0.25 0.625 0
0.125 0.625 0
0.125 0.75 0
0.25 0.625 0
0.25 0.75 0
0 0.625 0
0 0.75 0
0.125 0.625 0
0.125 0.75 0
0.25 0.75 0
0.25 0.875 0
0.375 0.75 0
0.375 0.875 0
0.375 0.75 0
0.375 0.875 0
0.5 0.75 0
0.5 0.875 0
0.375 0.875 0
0.375 1 0
0.5 0.875 0
0.5 1 0
0.25 0.875 0
0.25 1 0
0.375 0.875 0
0.375 1 0
-0.25 0.5 0
-0.25 0.625 0
-0.125 0.5 0
-0.125 0.625 0
-0.125 0.5 0
-0.125 0.625 0
0 0.5 0
0 0.625 0
-0.125 0.625 0
-0.125 0.75 0
0 0.625 0
0 0.75 0
-0.25 0.625 0
-0.25 0.75 0
-0.125 0.625 0
-0.125 0.75 0
-0.5 0.75 0
-0.5 0.875 0
-0.375 0.75 0
-0.375 0.875 0
-0.375 0.75 0
-0.375 0.875 0
-0.25 0.75 0
-0.25 0.875 0
-0.375 0.875 0
-0.375 1 0
-0.25 0.875 0
-0.25 1 0
-0.5 0.875 0
-0.5 1 0
-0.375 0.875 0
-0.375 1 0
-1 0.5 0
-1 0.625 0
-0.875 0.5 0
-0.875 0.625 0
-0.875 0.5 0
-0.875 0.625 0
-0.75 0.5 0
-0.75 0.625 0
-0.875 0.625 0
-0.875 0.75 0
-0.75 0.625 0
-0.75 0.75 0
-1 0.625 0
-1 0.75 0
-0.875 0.625 0
-0.875 0.75 0
-0.75 0.75 0
-0.75 0.875 0
-0.625 0.75 0
-0.625 0.875 0
-0.625 0.75 0
-0.625 0.875 0
-0.5 0.75 0
-0.5 0.875 0
-0.625 0.875 0
-0.625 1 0
-0.5 0.875 0
-0.5 1 0
-0.75 0.875 0
-0.75 1 0
-0.625 0.875 0
-0.625 1 0
-1 0.75 0
-1 0.875 0
-0.875 0.75 0
-0.875 0.875 0
-0.875 0.75 0
-0.875 0.875 0
-0.75 0.75 0
-0.75 0.875 0
-0.875 0.875 0
-0.875 1 0
-0.75 0.875 0
-0.75 1 0
-1 0.875 0
-1 1 0
-0.875 0.875 0
-0.875 1 0
0.75 0.5 0
0.75 0.625 0
0.875 0.5 0
0.875 0.625 0
0.875 0.5 0
0.875 0.625 0
1 0.5 0
1 0.625 0
0.875 0.625 0
0.875 0.75 0
1 0.625 0
1 0.75 0
0.75 0.625 0
0.75 0.75 0
0.875 0.625 0
0.875 0.75 0
0.75 0.75 0
0.75 0.875 0
0.875 0.75 0
0.875 0.875 0
0.875 0.75 0
0.875 0.875 0
1 0.75 0
1 0.875 0
0.875 0.875 0
0.875 1 0
1 0.875 0
1 1 0
0.75 0.875 0
0.75 1 0
0.875 0.875 0
0.875 1 0
0.5 0.75 0
0.5 0.875 0
0.625 0.75 0
0.625 0.875 0
0.625 0.75 0
0.625 0.875 0
0.75 0.75 0
0.75 0.875 0
0.625 0.875 0
0.625 1 0
0.75 0.875 0
0.75 1 0
0.5 0.875 0
0.5 1 0
0.625 0.875 0
0.625 1 0
-0.5 -0.75 0
-0.5 -0.625 0
-0.375 -0.75 0
-0.375 -0.625 0
-0.375 -0.75 0
-0.375 -0.625 0
-0.25 -0.75 0
-0.25 -0.625 0
-0.375 -0.625 0
-0.375 -0.5 0
-0.25 -0.625 0
-0.25 -0.5 0
-0.5 -0.625 0
-0.5 -0.5 0
-0.375 -0.625 0
-0.375 -0.5 0
-0.5 -0.5 0
-0.5 -0.375 0
-0.375 -0.5 0
-0.375 -0.375 0
-0.375 -0.5 0
-0.375 -0.375 0
-0.25 -0.5 0
-0.25 -0.375 0
-0.375 -0.375 0
-0.375 -0.25 0
-0.25 -0.375 0
-0.25 -0.25 0
-0.5 -0.375 0
-0.5 -0.25 0
-0.375 -0.375 0
-0.375 -0.25 0
0 -0.25 0
0 -0.125 0
0.125 -0.25 0
0.125 -0.125 0
0.125 -0.25 0
0.125 -0.125 0
0.25 -0.25 0
0.25 -0.125 0
0.125 -0.125 0
0.125 0 0
0.25 -0.125 0
0.25 0 0
0 -0.125 0
0 0 0
0.125 -0.125 0
0.125 0 0
-0.25 -0.25 0
-0.25 -0.125 0
-0.125 -0.25 0
-0.125 -0.125 0
-0.125 -0.25 0
-0.125 -0.125 0
0 -0.25 0
0 -0.125 0
-0.125 -0.125 0
-0.125 0 0
0 -0.125 0
0 0 0
-0.25 -0.125 0
-0.25 0 0
-0.125 -0.125 0
-0.125 0 0
-0.75 -0.5 0
-0.75 -0.375 0
-0.625 -0.5 0
-0.625 -0.375 0
-0.625 -0.5 0
-0.625 -0.375 0
-0.5 -0.5 0
-0.5 -0.375 0
-0.625 -0.375 0
-0.625 -0.25 0
-0.5 -0.375 0
-0.5 -0.25 0
-0.75 -0.375 0
-0.75 -0.25 0
-0.625 -0.375 0
-0.625 -0.25 0
-0.25 0 0
-0.25 0.125 0
-0.125 0 0
-0.125 0.125 0
-0.125 0 0
-0.125 0.125 0
0 0 0
0 0.125 0
-0.125 0.125 0
-0.125 0.25 0
0 0.125 0
0 0.25 0
-0.25 0.125 0
-0.25 0.25 0
-0.125 0.125 0
-0.125 0.25 0
0.25 -0.75 0
0.25 -0.625 0
0.375 -0.75 0
0.375 -0.625 0
0.375 -0.75 0
0.375 -0.625 0
0.5 -0.75 0
0.5 -0.625 0
0.375 -0.625 0
0.375 -0.5 0
0.5 -0.625 0
0.5 -0.5 0
0.25 -0.625 0
0.25 -0.5 0
0.375 -0.625 0
0.375 -0.5 0
0.25 -0.5 0
0.25 -0.375 0
0.375 -0.5 0
0.375 -0.375 0
0.375 -0.5 0
0.375 -0.375 0
0.5 -0.5 0
0.5 -0.375 0
0.375 -0.375 0
0.375 -0.25 0
0.5 -0.375 0
0.5 -0.25 0
0.25 -0.375 0
0.25 -0.25 0
0.375 -0.375 0
0.375 -0.25 0
0.5 -0.5 0
0.5 -0.375 0
0.625 -0.5 0
0.625 -0.375 0
0.625 -0.5 0
0.625 -0.375 0
0.75 -0.5 0
0.75 -0.375 0
0.625 -0.375 0
0.625 -0.25 0
0.75 -0.375 0
0.75 -0.25 0
0.5 -0.375 0
0.5 -0.25 0
0.625 -0.375 0
0.625 -0.25 0
0 0 0
0 0.125 0
0.125 0 0
0.125 0.125 0
0.125 0 0
0.125 0.125 0
0.25 0 0
0.25 0.125 0
0.125 0.125 0
0.125 0.25 0
0.25 0.125 0
0.25 0.25 0
0 0.125 0
0 0.25 0
0.125 0.125 0
0.125 0.25 0
-0.5 0.25 0
-0.5 0.375 0
-0.375 0.25 0
-0.375 0.375 0
-0.375 0.25 0
-0.375 0.375 0
-0.25 0.25 0
-0.25 0.375 0
-0.375 0.375 0
-0.375 0.5 0
-0.25 0.375 0
-0.25 0.5 0
-0.5 0.375 0
-0.5 0.5 0
-0.375 0.375 0
-0.375 0.5 0
-0.75 0.25 0
-0.75 0.375 0
-0.625 0.25 0
-0.625 0.375 0
-0.625 0.25 0
-0.625 0.375 0
-0.5 0.25 0
-0.5 0.375 0
-0.625 0.375 0
-0.625 0.5 0
-0.5 0.375 0
-0.5 0.5 0
-0.75 0.375 0
-0.75 0.5 0
-0.625 0.375 0
-0.625 0.5 0
-0.5 0.5 0
-0.5 0.625 0
-0.375 0.5 0
-0.375 0.625 0
-0.375 0.5 0
-0.375 0.625 0
-0.25 0.5 0
-0.25 0.625 0
-0.375 0.625 0
-0.375 0.75 0
-0.25 0.625 0
-0.25 0.75 0
-0.5 0.625 0
-0.5 0.75 0
-0.375 0.625 0
-0.375 0.75 0
0.5 0.25 0
0.5 0.375 0
0.625 0.25 0
0.625 0.375 0
0.625 0.25 0
0.625 0.375 0
0.75 0.25 0
0.75 0.375 0
0.625 0.375 0
0.625 0.5 0
0.75 0.375 0
0.75 0.5 0
0.5 0.375 0
0.5 0.5 0
0.625 0.375 0
0.625 0.5 0
0.25 0.25 0
0.25 0.375 0
0.375 0.25 0
0.375 0.375 0
0.375 0.25 0
0.375 0.375 0
0.5 0.25 0
0.5 0.375 0
0.375 0.375 0
0.375 0.5 0
0.5 0.375 0
0.5 0.5 0
0.25 0.375 0
0.25 0.5 0
0.375 0.375 0
0.375 0.5 0
0.25 0.5 0
0.25 0.625 0
0.375 0.5 0
0.375 0.625 0
0.375 0.5 0
0.375 0.625 0
0.5 0.5 0
0.5 0.625 0
0.375 0.625 0
0.375 0.75 0
0.5 0.625 0
0.5 0.75 0
0.25 0.625 0
0.25 0.75 0
0.375 0.625 0
0.375 0.75 0
-0.75 -0.75 0
-0.75 -0.625 0
-0.625 -0.75 0
-0.625 -0.625 0
-0.625 -0.75 0
-0.625 -0.625 0
-0.5 -0.75 0
-0.5 -0.625 0
-0.625 -0.625 0
-0.625 -0.5 0
-0.5 -0.625 0
-0.5 -0.5 0
-0.75 -0.625 0
-0.75 -0.5 0
-0.625 -0.625 0
-0.625 -0.5 0
-1 -0.25 0
-1 -0.125 0
-0.875 -0.25 0
-0.875 -0.125 0
-0.875 -0.25 0
-0.875 -0.125 0
-0.75 -0.25 0
-0.75 -0.125 0
-0.875 -0.125 0
-0.875 0 0
-0.75 -0.125 0
-0.75 0 0
-1 -0.125 0
-1 0 0
-0.875 -0.125 0
-0.875 0 0
-1 0 0
-1 0.125 0
-0.875 0 0
-0.875 0.125 0
-0.875 0 0
-0.875 0.125 0
-0.75 0 0
-0.75 0.125 0
-0.875 0.125 0
-0.875 0.25 0
-0.75 0.125 0
-0.75 0.25 0
-1 0.125 0
-1 0.25 0
-0.875 0.125 0
-0.875 0.25 0
-0.25 -1 0
-0.25 -0.875 0
-0.125 -1 0
-0.125 -0.875 0
-0.125 -1 0
-0.125 -0.875 0
0 -1 0
0 -0.875 0
-0.125 -0.875 0
-0.125 -0.75 0
0 -0.875 0
0 -0.75 0
-0.25 -0.875 0
-0.25 -0.75 0
-0.125 -0.875 0
-0.125 -0.75 0
0 -1 0
0 -0.875 0
0.125 -1 0
0.125 -0.875 0
0.125 -1 0
0.125 -0.875 0
0.25 -1 0
0.25 -0.875 0
0.125 -0.875 0
0.125 -0.75 0
0.25 -0.875 0
0.25 -0.75 0
0 -0.875 0
0 -0.75 0
0.125 -0.875 0
0.125 -0.75 0
0.5 -0.75 0
0.5 -0.625 0
0.625 -0.75 0
0.625 -0.625 0
0.625 -0.75 0
0.625 -0.625 0
0.75 -0.75 0
0.75 -0.625 0
0.625 -0.625 0
0.625 -0.5 0
0.75 -0.625 0
0.75 -0.5 0
0.5 -0.625 0
0.5 -0.5 0
0.625 -0.625 0
0.625 -0.5 0
-0.75 0.5 0
-0.75 0.625 0
-0.625 0.5 0
-0.625 0.625 0
-0.625 0.5 0
-0.625 0.625 0
-0.5 0.5 0
-0.5 0.625 0
-0.625 0.625 0
-0.625 0.75 0
-0.5 0.625 0
-0.5 0.75 0
-0.75 0.625 0
-0.75 0.75 0
-0.625 0.625 0
-0.625 0.75 0
0.75 -0.25 0
0.75 -0.125 0
0.875 -0.25 0
0.875 -0.125 0
0.875 -0.25 0
0.875 -0.125 0
1 -0.25 0
1 -0.125 0
0.875 -0.125 0
0.875 0 0
1 -0.125 0
1 0 0
0.75 -0.125 0
0.75 0 0
0.875 -0.125 0
0.875 0 0
0.75 0 0
0.75 0.125 0
0.875 0 0
0.875 0.125 0
0.875 0 0
0.875 0.125 0
1 0 0
1 0.125 0
0.875 0.125 0
0.875 0.25 0
1 0.125 0
1 0.25 0
0.75 0.125 0
0.75 0.25 0
0.875 0.125 0
0.875 0.25 0
0.5 0.5 0
0.5 0.625 0
0.625 0.5 0
0.625 0.625 0
0.625 0.5 0
0.625 0.625 0
0.75 0.5 0
0.75 0.625 0
0.625 0.625 0
0.625 0.75 0
0.75 0.625 0
0.75 0.75 0
0.5 0.625 0
0.5 0.75 0
0.625 0.625 0
0.625 0.75 0
0 0.75 0
0 0.875 0
0.125 0.75 0
0.125 0.875 0
0.125 0.75 0
0.125 0.875 0
0.25 0.75 0
0.25 0.875 0
0.125 0.875 0
0.125 1 0
0.25 0.875 0
0.25 1 0
0 0.875 0
0 1 0
0.125 0.875 0
0.125 1 0
-0.25 0.75 0
-0.25 0.875 0
-0.125 0.75 0
-0.125 0.875 0
-0.125 0.75 0
-0.125 0.875 0
0 0.75 0
0 0.875 0
-0.125 0.875 0
-0.125 1 0
0 0.875 0
0 1 0
-0.25 0.875 0
-0.25 1 0
-0.125 0.875 0
-0.125 1 0

CELLS 256 1280
4 0 2 3 1
4 4 6 7 5
4 8 10 11 9
4 12 14 15 13
4 16 18 19 17
4 20 22 23 21
4 24 26 27 25
4 28 30 31 29
4 32 34 35 33
4 36 38 39 37
4 40 42 43 41
4 44 46 47 45
4 48 50 51 49
4 52 54 55 53
4 56 58 59 57
4 60 62 63 61
4 64 66 67 65
4 68 70 71 69
4 72 74 75 73
4 76 78 79 77
4 80 82 83 81
4 84 86 87 85
4 88 90 91 89
4 92 94 95 93
4 96 98 99 97
4 100 102 103 101
4 104 106 107 105
4 108 110 111 109
4 112 114 115 113
4 116 118 119 117
4 120 122 123 121
4 124 126 127 125
4 128 130 131 129
4 132 134 135 133
4 136 138 139 137
4 140 142 143 141
4 144 146 147 145
4 148 150 151 149
4 152 154 155 153
4 156 158 159 157
4 160 162 163 161
4 164 166 167 165
4 168 170 171 169
4 172 174 175 173
4 176 178 179 177
4 180 182 183 181
4 184 186 187 185
4 188 190 191 189
4 192 194 195 193
4 196 198 199 197
4 200 202 203 201
4 204 206 207 205
4 208 210 211 209
4 212 214 215 213
4 216 218 219 217
4 220 222 223 221
4 224 226 227 225
4 228 230 231 229
4 232 234 235 233
4 236 238 239 237
4 240 242 243 241
4 244 246 247 245
4 248 250 251 249
4 252 254 255 253
4 256 258 259 257
4 260 262 263 261
4 264 266 267 265
4 268 270 271 269
4 272 274 275 273
4 276 278 279 277
4 280 282 283 281
4 284 286 287 285
4 288 290 291 289
4 292 294 295 293
4 296 298 299 297
4 300 302 303 301
4 304 306 307 305
4 308 310 311 309
4 312 314 315 313
4 316 318 319 317
4 320 322 323 321
4 324 326 327 325
4 328 330 331 329
4 332 334 335 333
4 336 338 339 337
4 340 342 343 341
4 344 346 347 345
4 348 350 351 349
4 352 354 355 353
4 356 358 359 357
4 360 362 363 361
4 364 366 367 365
4 368 370 371 369
4 372 374 375 373
4 376 378 379 377
4 380 382 383 381
4 384 386 387 385
4 388 390 391 389
4 392 394 395 393
4 396 398 399 397
4 400 402 403 401
4 404 406 407 405
4 408 410 411 409
4 412 414 415 413
4 416 418 419 417
4 420 422 423 421
4 424 426 427 425
4 428 430 431 429
4 432 434 435 433
4 436 438 439 437
4 440 442 443 441
4 444 446 447 445
4 448 450 451 449
4 452 454 455 453
4 456 458 459 457
4 460 462 463 461
4 464 466 467 465
4 468 470 471 469
4 472 474 475 473
4 476 478 479 477
4 480 482 483 481
4 484 486 487 485
4 488 490 491 489
4 492 494 495 493
4 496 498 499 497
4 500 502 503 501
4 504 506 507 505
4 508 510 511 509
4 512 514 515 513
4 516 518 519 517
4 520 522 523 521
4 524 526 527 525
4 528 530 531 529
4 532 534 535 533
4 536 538 539 537
4 540 542 543 541
4 544 546 547 545
4 548 550 551 549
4 552 554 555 553
4 556 558 559 557
4 560 562 563 561
4 564 566 567 565
4 568 570 571 569
4 572 574 575 573
4 576 578 579 577
4 580 582 583 581
4 584 586 587 585
4 588 590 591 589
4 592 594 595 593
4 596 598 599 597
4 600 602 603 601
4 604 606 607 605
4 608 610 611 609
4 612 614 615 613
4 616 618 619 617
4 620 622 623 621
4 624 626 627 625
4 628 630 631 629
4 632 634 635 633
4 636 638 639 637
4 640 642 643 641
4 644 646 647 645
4 648 650 651 649
4 652 654 655 653
4 656 658 659 657
4 660 662 663 661
4 664 666 667 665
4 668 670 671 669
4 672 674 675 673
4 676 678 679 677
4 680 682 683 681
4 684 686 687 685
4 688 690 691 689
4 692 694 695 693
4 696 698 699 697
4 700 702 703 701
4 704 706 707 705
4 708 710 711 709
4 712 714 715 713
4 716 718 719 717
4 720 722 723 721
4 724 726 727 725
4 728 730 731 729
4 732 734 735 733
4 736 738 739 737
4 740 742 743 741
4 744 746 747 745
4 748 750 751 749
4 752 754 755 753
4 756 758 759 757
4 760 762 763 761
4 764 766 767 765
4 768 770 771 769
4 772 774 775 773
4 776 778 779 777
4 780 782 783 781
4 784 786 787 785
4 788 790 791 789
4 792 794 795 793
4 796 798 799 797
4 800 802 803 801
4 804 806 807 805
4 808 810 811 809
4 812 814 815 813
4 816 818 819 817
4 820 822 823 821
4 824 826 827 825
4 828 830 831 829
4 832 834 835 833
4 836 838 839 837
4 840 842 843 841
4 844 846 847 845
4 848 850 851 849
4 852 854 855 853
4 856 858 859 857
4 860 862 863 861
4 864 866 867 865
4 868 870 871 869
4 872 874 875 873
4 876 878 879 877
4 880 882 883 881
4 884 886 887 885
4 888 890 891 889
4 892 894 895 893
4 896 898 899 897
4 900 902 903 901
4 904 906 907 905
4 908 910 911 909
4 912 914 915 913
4 916 918 919 917
4 920 922 923 921
4 924 926 927 925
4 928 930 931 929
4 932 934 935 933
4 936 938 939 937
4 940 942 943 941
4 944 946 947 945
4 948 950 951 949
4 952 954 955 953
4 956 958 959 957
4 960 962 963 961
4 964 966 967 965
4 968 970 971 969
4 972 974 975 973
4 976 978 979 977
4 980 982 983 981
4 984 986 987 985
4 988 990 991 989
4 992 994 995 993
4 996 998 999 997
4 1000 1002 1003 1001
4 1004 1006 1007 1005
4 1008 1010 1011 1009
4 1012 1014 1015 1013
4 1016 1018 1019 1017
4 1020 1022 1023 1021

CELL_TYPES 256
9
9
9
9
9
9
9
9
9
9
9
9
9
9
9
9
9
9
9
9
9
9
9
9
9
9
9
9
9
9
9
9
9
9
9
9
9
9
9
9
9
9
9
9
9
9
9
9
9
9
9
9
9
9
9
9
9
9
9
9
9
9
9
9
9
9
9
9
9
9
9
9
9
9
9
9
9
9
9
9
9
9
9
9
9
9
9
9
9
9
9
9
9
9
9
9
9
9
9
9
9
9
9
9
9
9
9
9
9
9
9
9
9
9
9
9
9
9
9
9
9
9
9
9
9
9
9
9
9
9
9
9
9
9
9
9
9
9
9
9
9
9
9
9
9
9
9
9
9
9
9
9
9
9
9
9
9
9
9
9
9
9
9
9
9
9
9
9
9
9
9
9
9
9
9
9
9
9
9
9
9
9
9
9
9
9
9
9
9
9
9
9
9
9
9
9
9
9
9
9
9
9
9
9
9
9
9
9
9
9
9
9
9
9
9
9
9
9
9
9
9
9
9
9
9
9
9
9
9
9
9
9
9
9
9
9
9
9
9
9
9
9
9
9
9
9
9
9
9
9
9
9
9
9
9
9

POINT_DATA 1024
SCALARS Pressure float
LOOKUP_TABLE default
0.692802 
0.639445 
0.371952 
0.343306 
0.37618 
0.347208 
-0.00228807 
-0.00211183 
0.347882 
0.265377 
-0.00211596 
-0.00161409 
0.640687 
0.488739 
0.343972 
0.262394 
0.692802 
0.371952 
0.639445 
0.343306 
0.640687 
0.343972 
0.488739 
0.262394 
0.347882 
-0.00211596 
0.265377 
-0.00161409 
0.37618 
-0.00228807 
0.347208 
-0.00211183 
0.00228807 
0.00211183 
-0.37618 
-0.347208 
-0.371952 
-0.343306 
-0.692802 
-0.639445 
-0.343972 
-0.262394 
-0.640687 
-0.488739 
0.00211596 
0.00161409 
-0.347882 
-0.265377 
-0.488739 
-0.262394 
-0.640687 
-0.343972 
-0.639445 
-0.343306 
-0.692802 
-0.371952 
-0.347208 
0.00211183 
-0.37618 
0.00228807 
-0.265377 
0.00161409 
-0.347882 
0.00211596 
0.00228807 
-0.37618 
0.00211183 
-0.347208 
0.00211596 
-0.347882 
0.00161409 
-0.265377 
-0.343972 
-0.640687 
-0.262394 
-0.488739 
-0.371952 
-0.692802 
-0.343306 
-0.639445 
-0.488739 
-0.640687 
-0.262394 
-0.343972 
-0.265377 
-0.347882 
0.00161409 
0.00211596 
-0.347208 
-0.37618 
0.00211183 
0.00228807 
-0.639445 
-0.692802 
-0.343306 
-0.371952 
-0.00161409 
0.265377 
-0.00211596 
0.347882 
-0.00211183 
0.347208 
-0.00228807 
0.37618 
0.343306 
0.639445 
0.371952 
0.692802 
0.262394 
0.488739 
0.343972 
0.640687 
-0.00161409 
-0.00211596 
0.265377 
0.347882 
0.262394 
0.343972 
0.488739 
0.640687 
0.343306 
0.371952 
0.639445 
0.692802 
-0.00211183 
-0.00228807 
0.347208 
0.37618 
-0.00228807 
-0.00211183 
0.37618 
0.347208 
0.371952 
0.343306 
0.692802 
0.639445 
0.343972 
0.262394 
0.640687 
0.488739 
-0.00211596 
-0.00161409 
0.347882 
0.265377 
0.488739 
0.262394 
0.640687 
0.343972 
0.639445 
0.343306 
0.692802 
0.371952 
0.347208 
-0.00211183 
0.37618 
-0.00228807 
0.265377 
-0.00161409 
0.347882 
-0.00211596 
-0.00228807 
0.37618 
-0.00211183 
0.347208 
-0.00211596 
0.347882 
-0.00161409 
0.265377 
0.343972 
0.640687 
0.262394 
0.488739 
0.371952 
0.692802 
0.343306 
0.639445 
0.488739 
0.640687 
0.262394 
0.343972 
0.265377 
0.347882 
-0.00161409 
-0.00211596 
0.347208 
0.37618 
-0.00211183 
-0.00228807 
0.639445 
0.692802 
0.343306 
0.371952 
5.39698e-06 
-0.000880591 
-0.000880591 
0.144772 
-0.000870618 
0.143144 
-0.00162172 
0.266622 
0.141536 
0.263626 
0.263626 
0.491032 
-0.000870618 
-0.00162172 
0.143144 
0.266622 
-0.00161409 
0.265377 
-0.00211596 
0.347882 
-0.00211183 
0.347208 
-0.00228807 
0.37618 
0.343306 
0.639445 
0.371952 
0.692802 
0.262394 
0.488739 
0.343972 
0.640687 
-0.00161409 
-0.00211596 
0.265377 
0.347882 
0.262394 
0.343972 
0.488739 
0.640687 
0.343306 
0.371952 
0.639445 
0.692802 
-0.00211183 
-0.00228807 
0.347208 
0.37618 
0.00161409 
-0.265377 
0.00211596 
-0.347882 
0.00211183 
-0.347208 
0.00228807 
-0.37618 
-0.343306 
-0.639445 
-0.371952 
-0.692802 
-0.262394 
-0.488739 
-0.343972 
-0.640687 
0.00161409 
0.00211596 
-0.265377 
-0.347882 
-0.262394 
-0.343972 
-0.488739 
-0.640687 
-0.343306 
-0.371952 
-0.639445 
-0.692802 
0.00211183 
0.00228807 
-0.347208 
-0.37618 
0.00161409 
-0.265377 
0.00211596 
-0.347882 
0.00211183 
-0.347208 
0.00228807 
-0.37618 
-0.343306 
-0.639445 
-0.371952 
-0.692802 
-0.262394 
-0.488739 
-0.343972 
-0.640687 
0.00161409 
0.00211596 
-0.265377 
-0.347882 
-0.262394 
-0.343972 
-0.488739 
-0.640687 
-0.343306 
-0.371952 
-0.639445 
-0.692802 
0.00211183 
0.00228807 
-0.347208 
-0.37618 
-0.692802 
-0.639445 
-0.371952 
-0.343306 
-0.37618 
-0.347208 
0.00228807 
0.00211183 
-0.347882 
-0.265377 
0.00211596 
0.00161409 
-0.640687 
-0.488739 
-0.343972 
-0.262394 
-0.692802 
-0.371952 
-0.639445 
-0.343306 
-0.640687 
-0.343972 
-0.488739 
-0.262394 
-0.347882 
0.00211596 
-0.265377 
0.00161409 
-0.37618 
0.00228807 
-0.347208 
0.00211183 
0.00228807 
-0.37618 
0.00211183 
-0.347208 
0.00211596 
-0.347882 
0.00161409 
-0.265377 
-0.343972 
-0.640687 
-0.262394 
-0.488739 
-0.371952 
-0.692802 
-0.343306 
-0.639445 
0.00162172 
-0.266622 
0.000870618 
-0.143144 
0.000880591 
-0.144772 
-5.39698e-06 
0.000880591 
-0.143144 
-0.266622 
0.000870618 
0.00162172 
-0.263626 
-0.491032 
-0.141536 
-0.263626 
-0.488739 
-0.640687 
-0.262394 
-0.343972 
-0.265377 
-0.347882 
0.00161409 
0.00211596 
-0.347208 
-0.37618 
0.00211183 
0.00228807 
-0.639445 
-0.692802 
-0.343306 
-0.371952 
-0.00228807 
0.37618 
-0.00211183 
0.347208 
-0.00211596 
0.347882 
-0.00161409 
0.265377 
0.343972 
0.640687 
0.262394 
0.488739 
0.371952 
0.692802 
0.343306 
0.639445 
0.488739 
0.640687 
0.262394 
0.343972 
0.265377 
0.347882 
-0.00161409 
-0.00211596 
0.347208 
0.37618 
-0.00211183 
-0.00228807 
0.639445 
0.692802 
0.343306 
0.371952 
-0.00228807 
-0.00211183 
0.37618 
0.347208 
0.371952 
0.343306 
0.692802 
0.639445 
0.343972 
0.262394 
0.640687 
0.488739 
-0.00211596 
-0.00161409 
0.347882 
0.265377 
0.488739 
0.262394 
0.640687 
0.343972 
0.639445 
0.343306 
0.692802 
0.371952 
0.347208 
-0.00211183 
0.37618 
-0.00228807 
0.265377 
-0.00161409 
0.347882 
-0.00211596 
-0.692802 
-0.639445 
-0.371952 
-0.343306 
-0.37618 
-0.347208 
0.00228807 
0.00211183 
-0.347882 
-0.265377 
0.00211596 
0.00161409 
-0.640687 
-0.488739 
-0.343972 
-0.262394 
-0.692802 
-0.371952 
-0.639445 
-0.343306 
-0.640687 
-0.343972 
-0.488739 
-0.262394 
-0.347882 
0.00211596 
-0.265377 
0.00161409 
-0.37618 
0.00228807 
-0.347208 
0.00211183 
0.00228807 
0.00211183 
-0.37618 
-0.347208 
-0.371952 
-0.343306 
-0.692802 
-0.639445 
-0.343972 
-0.262394 
-0.640687 
-0.488739 
0.00211596 
0.00161409 
-0.347882 
-0.265377 
-0.488739 
-0.262394 
-0.640687 
-0.343972 
-0.639445 
-0.343306 
-0.692802 
-0.371952 
-0.347208 
0.00211183 
-0.37618 
0.00228807 
-0.265377 
0.00161409 
-0.347882 
0.00211596 
0.00162172 
0.000870618 
-0.266622 
-0.143144 
-0.263626 
-0.141536 
-0.491032 
-0.263626 
-0.143144 
0.000870618 
-0.266622 
0.00162172 
0.000880591 
-5.39698e-06 
-0.144772 
0.000880591 
0.692802 
0.639445 
0.371952 
0.343306 
0.37618 
0.347208 
-0.00228807 
-0.00211183 
0.347882 
0.265377 
-0.00211596 
-0.00161409 
0.640687 
0.488739 
0.343972 
0.262394 
0.491032 
0.263626 
0.263626 
0.141536 
0.266622 
0.143144 
-0.00162172 
-0.000870618 
0.144772 
-0.000880591 
-0.000880591 
5.39698e-06 
0.266622 
-0.00162172 
0.143144 
-0.000870618 
0.692802 
0.371952 
0.639445 
0.343306 
0.640687 
0.343972 
0.488739 
0.262394 
0.347882 
-0.00211596 
0.265377 
-0.00161409 
0.37618 
-0.00228807 
0.347208 
-0.00211183 
0.689567 
0.903952 
0.636459 
0.834333 
0.637694 
0.835952 
0.486456 
0.637694 
0.834333 
0.903952 
0.636459 
0.689567 
0.9022 
0.977482 
0.832716 
0.9022 
0.977482 
0.9022 
0.9022 
0.832716 
0.903952 
0.834333 
0.689567 
0.636459 
0.835952 
0.637694 
0.637694 
0.486456 
0.903952 
0.689567 
0.834333 
0.636459 
0.00162172 
0.000870618 
-0.266622 
-0.143144 
-0.263626 
-0.141536 
-0.491032 
-0.263626 
-0.143144 
0.000870618 
-0.266622 
0.00162172 
0.000880591 
-5.39698e-06 
-0.144772 
0.000880591 
0.491032 
0.263626 
0.263626 
0.141536 
0.266622 
0.143144 
-0.00162172 
-0.000870618 
0.144772 
-0.000880591 
-0.000880591 
5.39698e-06 
0.266622 
-0.00162172 
0.143144 
-0.000870618 
0.689567 
0.636459 
0.903952 
0.834333 
0.9022 
0.832716 
0.977482 
0.9022 
0.834333 
0.636459 
0.903952 
0.689567 
0.637694 
0.486456 
0.835952 
0.637694 
0.00162172 
-0.266622 
0.000870618 
-0.143144 
0.000880591 
-0.144772 
-5.39698e-06 
0.000880591 
-0.143144 
-0.266622 
0.000870618 
0.00162172 
-0.263626 
-0.491032 
-0.141536 
-0.263626 
-0.486456 
-0.637694 
-0.637694 
-0.835952 
-0.636459 
-0.834333 
-0.689567 
-0.903952 
-0.832716 
-0.9022 
-0.9022 
-0.977482 
-0.636459 
-0.689567 
-0.834333 
-0.903952 
-0.689567 
-0.636459 
-0.903952 
-0.834333 
-0.9022 
-0.832716 
-0.977482 
-0.9022 
-0.834333 
-0.636459 
-0.903952 
-0.689567 
-0.637694 
-0.486456 
-0.835952 
-0.637694 
-0.977482 
-0.9022 
-0.9022 
-0.832716 
-0.903952 
-0.834333 
-0.689567 
-0.636459 
-0.835952 
-0.637694 
-0.637694 
-0.486456 
-0.903952 
-0.689567 
-0.834333 
-0.636459 
5.39698e-06 
-0.000880591 
-0.000880591 
0.144772 
-0.000870618 
0.143144 
-0.00162172 
0.266622 
0.141536 
0.263626 
0.263626 
0.491032 
-0.000870618 
-0.00162172 
0.143144 
0.266622 
-0.689567 
-0.903952 
-0.636459 
-0.834333 
-0.637694 
-0.835952 
-0.486456 
-0.637694 
-0.834333 
-0.903952 
-0.636459 
-0.689567 
-0.9022 
-0.977482 
-0.832716 
-0.9022 
-0.486456 
-0.637694 
-0.637694 
-0.835952 
-0.636459 
-0.834333 
-0.689567 
-0.903952 
-0.832716 
-0.9022 
-0.9022 
-0.977482 
-0.636459 
-0.689567 
-0.834333 
-0.903952 
-0.977482 
-0.9022 
-0.9022 
-0.832716 
-0.903952 
-0.834333 
-0.689567 
-0.636459 
-0.835952 
-0.637694 
-0.637694 
-0.486456 
-0.903952 
-0.689567 
-0.834333 
-0.636459 
0.689567 
0.903952 
0.636459 
0.834333 
0.637694 
0.835952 
0.486456 
0.637694 
0.834333 
0.903952 
0.636459 
0.689567 
0.9022 
0.977482 
0.832716 
0.9022 
0.486456 
0.637694 
0.637694 
0.835952 
0.636459 
0.834333 
0.689567 
0.903952 
0.832716 
0.9022 
0.9022 
0.977482 
0.636459 
0.689567 
0.834333 
0.903952 
0.689567 
0.636459 
0.903952 
0.834333 
0.9022 
0.832716 
0.977482 
0.9022 
0.834333 
0.636459 
0.903952 
0.689567 
0.637694 
0.486456 
0.835952 
0.637694 
0.486456 
0.637694 
0.637694 
0.835952 
0.636459 
0.834333 
0.689567 
0.903952 
0.832716 
0.9022 
0.9022 
0.977482 
0.636459 
0.689567 
0.834333 
0.903952 
-0.00162172 
-0.000870618 
0.266622 
0.143144 
0.263626 
0.141536 
0.491032 
0.263626 
0.143144 
-0.000870618 
0.266622 
-0.00162172 
-0.000880591 
5.39698e-06 
0.144772 
-0.000880591 
-5.39698e-06 
0.000880591 
0.000880591 
-0.144772 
0.000870618 
-0.143144 
0.00162172 
-0.266622 
-0.141536 
-0.263626 
-0.263626 
-0.491032 
0.000870618 
0.00162172 
-0.143144 
-0.266622 
-0.00162172 
0.266622 
-0.000870618 
0.143144 
-0.000880591 
0.144772 
5.39698e-06 
-0.000880591 
0.143144 
0.266622 
-0.000870618 
-0.00162172 
0.263626 
0.491032 
0.141536 
0.263626 
-5.39698e-06 
0.000880591 
0.000880591 
-0.144772 
0.000870618 
-0.143144 
0.00162172 
-0.266622 
-0.141536 
-0.263626 
-0.263626 
-0.491032 
0.000870618 
0.00162172 
-0.143144 
-0.266622 
-0.689567 
-0.903952 
-0.636459 
-0.834333 
-0.637694 
-0.835952 
-0.486456 
-0.637694 
-0.834333 
-0.903952 
-0.636459 
-0.689567 
-0.9022 
-0.977482 
-0.832716 
-0.9022 
-0.689567 
-0.636459 
-0.903952 
-0.834333 
-0.9022 
-0.832716 
-0.977482 
-0.9022 
-0.834333 
-0.636459 
-0.903952 
-0.689567 
-0.637694 
-0.486456 
-0.835952 
-0.637694 
-0.491032 
-0.263626 
-0.263626 
-0.141536 
-0.266622 
-0.143144 
0.00162172 
0.000870618 
-0.144772 
0.000880591 
0.000880591 
-5.39698e-06 
-0.266622 
0.00162172 
-0.143144 
0.000870618 
-0.00162172 
0.266622 
-0.000870618 
0.143144 
-0.000880591 
0.144772 
5.39698e-06 
-0.000880591 
0.143144 
0.266622 
-0.000870618 
-0.00162172 
0.263626 
0.491032 
0.141536 
0.263626 
0.977482 
0.9022 
0.9022 
0.832716 
0.903952 
0.834333 
0.689567 
0.636459 
0.835952 
0.637694 
0.637694 
0.486456 
0.903952 
0.689567 
0.834333 
0.636459 
-0.00162172 
-0.000870618 
0.266622 
0.143144 
0.263626 
0.141536 
0.491032 
0.263626 
0.143144 
-0.000870618 
0.266622 
-0.00162172 
-0.000880591 
5.39698e-06 
0.144772 
-0.000880591 
-0.491032 
-0.263626 
-0.263626 
-0.141536 
-0.266622 
-0.143144 
0.00162172 
0.000870618 
-0.144772 
0.000880591 
0.000880591 
-5.39698e-06 
-0.266622 
0.00162172 
-0.143144 
0.000870618 

SCALARS ExactPressure float
LOOKUP_TABLE default
0.707107 
0.653281 
0.382683 
0.353553 
0.382683 
0.353553 
0 
0 
0.353553 
0.270598 
0 
0 
0.653281 
0.5 
0.353553 
0.270598 
0.707107 
0.382683 
0.653281 
0.353553 
0.653281 
0.353553 
0.5 
0.270598 
0.353553 
0 
0.270598 
0 
0.382683 
0 
0.353553 
0 
0 