# vtk DataFile Version 3.0
Arquivo gerado por PZ
ASCII

DATASET UNSTRUCTURED_GRID
POINTS 1888 float
-0.25 -0.5 0
-0.25 -0.375 0
-0.125 -0.5 0
-0.125 -0.375 0
-0.125 -0.375 0
-0.125 -0.25 0
0 -0.375 0
0 -0.25 0
-0.25 -0.375 0
-0.25 -0.25 0
-0.125 -0.375 0
-0.125 -0.25 0
-0.5 -0.25 0
-0.5 -0.125 0
-0.375 -0.25 0
-0.375 -0.125 0
-0.375 -0.25 0
-0.375 -0.125 0
-0.25 -0.25 0
-0.25 -0.125 0
-0.375 -0.125 0
-0.375 0 0
-0.25 -0.125 0
-0.25 0 0
0.125 -0.5 0
0.125 -0.375 0
0.25 -0.5 0
0.25 -0.375 0
0.125 -0.375 0
0.125 -0.25 0
0.25 -0.375 0
0.25 -0.25 0
0 -0.375 0
0 -0.25 0
0.125 -0.375 0
0.125 -0.25 0
0.25 -0.25 0
0.25 -0.125 0
0.375 -0.25 0
0.375 -0.125 0
0.375 -0.25 0
0.375 -0.125 0
0.5 -0.25 0
0.5 -0.125 0
0.25 -0.125 0
0.25 0 0
0.375 -0.125 0
0.375 0 0
-0.375 0 0
-0.375 0.125 0
-0.25 0 0
-0.25 0.125 0
-0.375 0.125 0
-0.375 0.25 0
-0.25 0.125 0
-0.25 0.25 0
-0.5 0.125 0
-0.5 0.25 0
-0.375 0.125 0
-0.375 0.25 0
-0.25 0.25 0
-0.25 0.375 0
-0.125 0.25 0
-0.125 0.375 0
-0.125 0.25 0
-0.125 0.375 0
0 0.25 0
0 0.375 0
-0.25 0.375 0
-0.25 0.5 0
-0.125 0.375 0
-0.125 0.5 0
0.25 0 0
0.25 0.125 0
0.375 0 0
0.375 0.125 0
0.375 0.125 0
0.375 0.25 0
0.5 0.125 0
0.5 0.25 0
0.25 0.125 0
0.25 0.25 0
0.375 0.125 0
0.375 0.25 0
0 0.25 0
0 0.375 0
0.125 0.25 0
0.125 0.375 0
0.125 0.25 0
0.125 0.375 0
0.25 0.25 0
0.25 0.375 0
0.125 0.375 0
0.125 0.5 0
0.25 0.375 0
0.25 0.5 0
-0.875 -0.5 0
-0.875 -0.375 0
-0.75 -0.5 0
-0.75 -0.375 0
-0.875 -0.375 0
-0.875 -0.25 0
-0.75 -0.375 0
-0.75 -0.25 0
-0.75 -0.25 0
-0.75 -0.125 0
-0.625 -0.25 0
-0.625 -0.125 0
-0.625 -0.25 0
-0.625 -0.125 0
-0.5 -0.25 0
-0.5 -0.125 0
-0.75 -0.125 0
-0.75 0 0
-0.625 -0.125 0
-0.625 0 0
-0.375 -0.875 0
-0.375 -0.75 0
-0.25 -0.875 0
-0.25 -0.75 0
-0.5 -0.875 0
-0.5 -0.75 0
-0.375 -0.875 0
-0.375 -0.75 0
-0.25 -0.75 0
-0.25 -0.625 0
-0.125 -0.75 0
-0.125 -0.625 0
-0.125 -0.75 0
-0.125 -0.625 0
0 -0.75 0
0 -0.625 0
-0.25 -0.625 0
-0.25 -0.5 0
-0.125 -0.625 0
-0.125 -0.5 0
-0.625 -0.875 0
-0.625 -0.75 0
-0.5 -0.875 0
-0.5 -0.75 0
-0.75 -0.875 0
-0.75 -0.75 0
-0.625 -0.875 0
-0.625 -0.75 0
-0.875 -0.75 0
-0.875 -0.625 0
-0.75 -0.75 0
-0.75 -0.625 0
-0.875 -0.625 0
-0.875 -0.5 0
-0.75 -0.625 0
-0.75 -0.5 0
0.375 -0.875 0
0.375 -0.75 0
0.5 -0.875 0
0.5 -0.75 0
0.25 -0.875 0
0.25 -0.75 0
0.375 -0.875 0
0.375 -0.75 0
0 -0.75 0
0 -0.625 0
0.125 -0.75 0
0.125 -0.625 0
0.125 -0.75 0
0.125 -0.625 0
0.25 -0.75 0
0.25 -0.625 0
0.125 -0.625 0
0.125 -0.5 0
0.25 -0.625 0
0.25 -0.5 0
-0.75 0 0
-0.75 0.125 0
-0.625 0 0
-0.625 0.125 0
-0.625 0.125 0
-0.625 0.25 0
-0.5 0.125 0
-0.5 0.25 0
-0.75 0.125 0
-0.75 0.25 0
-0.625 0.125 0
-0.625 0.25 0
-0.875 0.25 0
-0.875 0.375 0
-0.75 0.25 0
-0.75 0.375 0
-0.875 0.375 0
-0.875 0.5 0
-0.75 0.375 0
-0.75 0.5 0
0.75 -0.5 0
0.75 -0.375 0
0.875 -0.5 0
0.875 -0.375 0
0.75 -0.375 0
0.75 -0.25 0
0.875 -0.375 0
0.875 -0.25 0
0.5 -0.25 0
0.5 -0.125 0
0.625 -0.25 0
0.625 -0.125 0
0.625 -0.25 0
0.625 -0.125 0
0.75 -0.25 0
0.75 -0.125 0
0.625 -0.125 0
0.625 0 0
0.75 -0.125 0
0.75 0 0
0.625 -0.875 0
0.625 -0.75 0
0.75 -0.875 0
0.75 -0.75 0
0.5 -0.875 0
0.5 -0.75 0
0.625 -0.875 0
0.625 -0.75 0
0.75 -0.75 0
0.75 -0.625 0
0.875 -0.75 0
0.875 -0.625 0
0.75 -0.625 0
0.75 -0.5 0
0.875 -0.625 0
0.875 -0.5 0
0.625 0 0
0.625 0.125 0
0.75 0 0
0.75 0.125 0
0.625 0.125 0
0.625 0.25 0
0.75 0.125 0
0.75 0.25 0
0.5 0.125 0
0.5 0.25 0
0.625 0.125 0
0.625 0.25 0
0.75 0.25 0
0.75 0.375 0
0.875 0.25 0
0.875 0.375 0
0.75 0.375 0
0.75 0.5 0
0.875 0.375 0
0.875 0.5 0
0.125 0.5 0
0.125 0.625 0
0.25 0.5 0
0.25 0.625 0
0.125 0.625 0
0.125 0.75 0
0.25 0.625 0
0.25 0.75 0
0 0.625 0
0 0.75 0
0.125 0.625 0
0.125 0.75 0
0.25 0.75 0
0.25 0.875 0
0.375 0.75 0
0.375 0.875 0
0.375 0.75 0
0.375 0.875 0
0.5 0.75 0
0.5 0.875 0
-0.25 0.5 0
-0.25 0.625 0
-0.125 0.5 0
-0.125 0.625 0
-0.125 0.625 0
-0.125 0.75 0
0 0.625 0
0 0.75 0
-0.25 0.625 0
-0.25 0.75 0
-0.125 0.625 0
-0.125 0.75 0
-0.5 0.75 0
-0.5 0.875 0
-0.375 0.75 0
-0.375 0.875 0
-0.375 0.75 0
-0.375 0.875 0
-0.25 0.75 0
-0.25 0.875 0
-0.875 0.5 0
-0.875 0.625 0
-0.75 0.5 0
-0.75 0.625 0
-0.875 0.625 0
-0.875 0.75 0
-0.75 0.625 0
-0.75 0.75 0
-0.75 0.75 0
-0.75 0.875 0
-0.625 0.75 0
-0.625 0.875 0
-0.625 0.75 0
-0.625 0.875 0
-0.5 0.75 0
-0.5 0.875 0
0.75 0.5 0
0.75 0.625 0
0.875 0.5 0
0.875 0.625 0
0.75 0.625 0
0.75 0.75 0
0.875 0.625 0
0.875 0.75 0
0.5 0.75 0
0.5 0.875 0
0.625 0.75 0
0.625 0.875 0
0.625 0.75 0
0.625 0.875 0
0.75 0.75 0
0.75 0.875 0
-0.5 -0.75 0
-0.5 -0.625 0
-0.375 -0.75 0
-0.375 -0.625 0
-0.375 -0.75 0
-0.375 -0.625 0
-0.25 -0.75 0
-0.25 -0.625 0
-0.375 -0.625 0
-0.375 -0.5 0
-0.25 -0.625 0
-0.25 -0.5 0
-0.5 -0.625 0
-0.5 -0.5 0
-0.375 -0.625 0
-0.375 -0.5 0
-0.5 -0.5 0
-0.5 -0.375 0
-0.375 -0.5 0
-0.375 -0.375 0
-0.375 -0.5 0
-0.375 -0.375 0
-0.25 -0.5 0
-0.25 -0.375 0
-0.375 -0.375 0
-0.375 -0.25 0
-0.25 -0.375 0
-0.25 -0.25 0
-0.5 -0.375 0
-0.5 -0.25 0
-0.375 -0.375 0
-0.375 -0.25 0
0 -0.25 0
0 -0.125 0
0.125 -0.25 0
0.125 -0.125 0
0.125 -0.25 0
0.125 -0.125 0
0.25 -0.25 0
0.25 -0.125 0
0.125 -0.125 0
0.125 0 0
0.25 -0.125 0
0.25 0 0
0 -0.125 0
0 0 0
0.125 -0.125 0
0.125 0 0
-0.25 -0.25 0
-0.25 -0.125 0
-0.125 -0.25 0
-0.125 -0.125 0
-0.125 -0.25 0
-0.125 -0.125 0
0 -0.25 0
0 -0.125 0
-0.125 -0.125 0
-0.125 0 0
0 -0.125 0
0 0 0
-0.25 -0.125 0
-0.25 0 0
-0.125 -0.125 0
-0.125 0 0
-0.75 -0.5 0
-0.75 -0.375 0
-0.625 -0.5 0
-0.625 -0.375 0
-0.625 -0.5 0
-0.625 -0.375 0
-0.5 -0.5 0
-0.5 -0.375 0
-0.625 -0.375 0
-0.625 -0.25 0
-0.5 -0.375 0
-0.5 -0.25 0
-0.75 -0.375 0
-0.75 -0.25 0
-0.625 -0.375 0
-0.625 -0.25 0
-0.25 0 0
-0.25 0.125 0
-0.125 0 0
-0.125 0.125 0
-0.125 0 0
-0.125 0.125 0
0 0 0
0 0.125 0
-0.125 0.125 0
-0.125 0.25 0
0 0.125 0
0 0.25 0
-0.25 0.125 0
-0.25 0.25 0
-0.125 0.125 0
-0.125 0.25 0
0.25 -0.75 0
0.25 -0.625 0
0.375 -0.75 0
0.375 -0.625 0
0.375 -0.75 0
0.375 -0.625 0
0.5 -0.75 0
0.5 -0.625 0
0.375 -0.625 0
0.375 -0.5 0
0.5 -0.625 0
0.5 -0.5 0
0.25 -0.625 0
0.25 -0.5 0
0.375 -0.625 0
0.375 -0.5 0
0.25 -0.5 0
0.25 -0.375 0
0.375 -0.5 0
0.375 -0.375 0
0.375 -0.5 0
0.375 -0.375 0
0.5 -0.5 0
0.5 -0.375 0
0.375 -0.375 0
0.375 -0.25 0
0.5 -0.375 0
0.5 -0.25 0
0.25 -0.375 0
0.25 -0.25 0
0.375 -0.375 0
0.375 -0.25 0
0.5 -0.5 0
0.5 -0.375 0
0.625 -0.5 0
0.625 -0.375 0
0.625 -0.5 0
0.625 -0.375 0
0.75 -0.5 0
0.75 -0.375 0
0.625 -0.375 0
0.625 -0.25 0
0.75 -0.375 0
0.75 -0.25 0
0.5 -0.375 0
0.5 -0.25 0
0.625 -0.375 0
0.625 -0.25 0
0 0 0
0 0.125 0
0.125 0 0
0.125 0.125 0
0.125 0 0
0.125 0.125 0
0.25 0 0
0.25 0.125 0
0.125 0.125 0
0.125 0.25 0
0.25 0.125 0
0.25 0.25 0
0 0.125 0
0 0.25 0
0.125 0.125 0
0.125 0.25 0
-0.5 0.25 0
-0.5 0.375 0
-0.375 0.25 0
-0.375 0.375 0
-0.375 0.25 0
-0.375 0.375 0
-0.25 0.25 0
-0.25 0.375 0
-0.375 0.375 0
-0.375 0.5 0
-0.25 0.375 0
-0.25 0.5 0
-0.5 0.375 0
-0.5 0.5 0
-0.375 0.375 0
-0.375 0.5 0
-0.75 0.25 0
-0.75 0.375 0
-0.625 0.25 0
-0.625 0.375 0
-0.625 0.25 0
-0.625 0.375 0
-0.5 0.25 0
-0.5 0.375 0
-0.625 0.375 0
-0.625 0.5 0
-0.5 0.375 0
-0.5 0.5 0
-0.75 0.375 0
-0.75 0.5 0
-0.625 0.375 0
-0.625 0.5 0
-0.5 0.5 0
-0.5 0.625 0
-0.375 0.5 0
-0.375 0.625 0
-0.375 0.5 0
-0.375 0.625 0
-0.25 0.5 0
-0.25 0.625 0
-0.375 0.625 0
-0.375 0.75 0
-0.25 0.625 0
-0.25 0.75 0
-0.5 0.625 0
-0.5 0.75 0
-0.375 0.625 0
-0.375 0.75 0
0.5 0.25 0
0.5 0.375 0
0.625 0.25 0
0.625 0.375 0
0.625 0.25 0
0.625 0.375 0
0.75 0.25 0
0.75 0.375 0
0.625 0.375 0
0.625 0.5 0
0.75 0.375 0
0.75 0.5 0
0.5 0.375 0
0.5 0.5 0
0.625 0.375 0
0.625 0.5 0
0.25 0.25 0
0.25 0.375 0
0.375 0.25 0
0.375 0.375 0
0.375 0.25 0
0.375 0.375 0
0.5 0.25 0
0.5 0.375 0
0.375 0.375 0
0.375 0.5 0
0.5 0.375 0
0.5 0.5 0
0.25 0.375 0
0.25 0.5 0
0.375 0.375 0
0.375 0.5 0
0.25 0.5 0
0.25 0.625 0
0.375 0.5 0
0.375 0.625 0
0.375 0.5 0
0.375 0.625 0
0.5 0.5 0
0.5 0.625 0
0.375 0.625 0
0.375 0.75 0
0.5 0.625 0
0.5 0.75 0
0.25 0.625 0
0.25 0.75 0
0.375 0.625 0
0.375 0.75 0
-0.75 -0.75 0
-0.75 -0.625 0
-0.625 -0.75 0
-0.625 -0.625 0
-0.625 -0.75 0
-0.625 -0.625 0
-0.5 -0.75 0
-0.5 -0.625 0
-0.625 -0.625 0
-0.625 -0.5 0
-0.5 -0.625 0
-0.5 -0.5 0
-0.75 -0.625 0
-0.75 -0.5 0
-0.625 -0.625 0
-0.625 -0.5 0
-1 -0.25 0
-1 -0.125 0
-0.875 -0.25 0
-0.875 -0.125 0
-0.875 -0.25 0
-0.875 -0.125 0
-0.75 -0.25 0
-0.75 -0.125 0
-0.875 -0.125 0
-0.875 0 0
-0.75 -0.125 0
-0.75 0 0
-0.875 0 0
-0.875 0.125 0
-0.75 0 0
-0.75 0.125 0
-0.875 0.125 0
-0.875 0.25 0
-0.75 0.125 0
-0.75 0.25 0
-1 0.125 0
-1 0.25 0
-0.875 0.125 0
-0.875 0.25 0
-0.25 -1 0
-0.25 -0.875 0
-0.125 -1 0
-0.125 -0.875 0
-0.125 -0.875 0
-0.125 -0.75 0
0 -0.875 0
0 -0.75 0
-0.25 -0.875 0
-0.25 -0.75 0
-0.125 -0.875 0
-0.125 -0.75 0
0.125 -1 0
0.125 -0.875 0
0.25 -1 0
0.25 -0.875 0
0.125 -0.875 0
0.125 -0.75 0
0.25 -0.875 0
0.25 -0.75 0
0 -0.875 0
0 -0.75 0
0.125 -0.875 0
0.125 -0.75 0
0.5 -0.75 0
0.5 -0.625 0
0.625 -0.75 0
0.625 -0.625 0
0.625 -0.75 0
0.625 -0.625 0
0.75 -0.75 0
0.75 -0.625 0
0.625 -0.625 0
0.625 -0.5 0
0.75 -0.625 0
0.75 -0.5 0
0.5 -0.625 0
0.5 -0.5 0
0.625 -0.625 0
0.625 -0.5 0
-0.75 0.5 0
-0.75 0.625 0
-0.625 0.5 0
-0.625 0.625 0
-0.625 0.5 0
-0.625 0.625 0
-0.5 0.5 0
-0.5 0.625 0
-0.625 0.625 0
-0.625 0.75 0
-0.5 0.625 0
-0.5 0.75 0
-0.75 0.625 0
-0.75 0.75 0
-0.625 0.625 0
-0.625 0.75 0
0.75 -0.25 0
0.75 -0.125 0
0.875 -0.25 0
0.875 -0.125 0
0.875 -0.25 0
0.875 -0.125 0
1 -0.25 0
1 -0.125 0
0.75 -0.125 0
0.75 0 0
0.875 -0.125 0
0.875 0 0
0.75 0 0
0.75 0.125 0
0.875 0 0
0.875 0.125 0
0.875 0.125 0
0.875 0.25 0
1 0.125 0
1 0.25 0
0.75 0.125 0
0.75 0.25 0
0.875 0.125 0
0.875 0.25 0
0.5 0.5 0
0.5 0.625 0
0.625 0.5 0
0.625 0.625 0
0.625 0.5 0
0.625 0.625 0
0.75 0.5 0
0.75 0.625 0
0.625 0.625 0
0.625 0.75 0
0.75 0.625 0
0.75 0.75 0
0.5 0.625 0
0.5 0.75 0
0.625 0.625 0
0.625 0.75 0
0 0.75 0
0 0.875 0
0.125 0.75 0
0.125 0.875 0
0.125 0.75 0
0.125 0.875 0
0.25 0.75 0
0.25 0.875 0
0.125 0.875 0
0.125 1 0
0.25 0.875 0
0.25 1 0
-0.25 0.75 0
-0.25 0.875 0
-0.125 0.75 0
-0.125 0.875 0
-0.125 0.75 0
-0.125 0.875 0
0 0.75 0
0 0.875 0
-0.25 0.875 0
-0.25 1 0
-0.125 0.875 0
-0.125 1 0
-1 -1 0
-1 -0.9375 0
-0.9375 -1 0
-0.9375 -0.9375 0
-0.9375 -1 0
-0.9375 -0.9375 0
-0.875 -1 0
-0.875 -0.9375 0
[...]
POINT_DATA 1888
SCALARS Pressure float
LOOKUP_TABLE default
0.705846 
0.652364 
0.381363 
0.352541 
0.352777 
0.270108 
-0.000226725 
0.000108453 
0.652006 
0.499516 
0.352862 
0.269925 
0.705846 
0.381363 
0.652364 
0.352541 
0.652006 
0.352862 
0.499516 
0.269925 
0.352777 
-0.000226725 
0.270108 
0.000108453 
-0.381363 
-0.352541 
-0.705846 
-0.652364 
-0.352862 
-0.269925 
-0.652006 
-0.499516 
0.000226725 
-0.000108453 
-0.352777 
-0.270108 
-0.499516 
-0.269925 
-0.652006 
-0.352862 
-0.652364 
-0.352541 
-0.705846 
-0.381363 
-0.270108 
-0.000108453 
-0.352777 
0.000226725 
0.000226725 
-0.352777 
-0.000108453 
-0.270108 
-0.352862 
-0.652006 
-0.269925 
-0.499516 
-0.381363 
-0.705846 
-0.352541 
-0.652364 
-0.499516 
-0.652006 
-0.269925 
-0.352862 
-0.270108 
-0.352777 
-0.000108453 
0.000226725 
-0.652364 
-0.705846 
-0.352541 
-0.381363 
0.000108453 
0.270108 
-0.000226725 
0.352777 
0.352541 
0.652364 
0.381363 
0.705846 
0.269925 
0.499516 
0.352862 
0.652006 
0.000108453 
-0.000226725 
0.270108 
0.352777 
0.269925 
0.352862 
0.499516 
0.652006 
0.352541 
0.381363 
0.652364 
0.705846 
0.380949 
0.352022 
0.705484 
0.651942 
0.352279 
0.269454 
0.651659 
0.499208 
0.499232 
0.26977 
0.651883 
0.352798 
0.652236 
0.352469 
0.705844 
0.381362 
0.269968 
9.60652e-05 
0.352697 
-0.000214572 
0.352279 
0.651659 
0.269454 
0.499208 
0.380949 
0.705484 
0.352022 
0.651942 
0.499232 
0.651883 
0.26977 
0.352798 
0.269968 
0.352697 
9.60652e-05 
-0.000214572 
0.652236 
0.705844 
0.352469 
0.381362 
0.351772 
0.651598 
0.380913 
0.705507 
0.268661 
0.498445 
0.352159 
0.651195 
0.268661 
0.352159 
0.498445 
0.651195 
0.351772 
0.380913 
0.651598 
0.705507 
-0.352022 
-0.651942 
-0.380949 
-0.705484 
-0.269454 
-0.499208 
-0.352279 
-0.651659 
-9.60652e-05 
0.000214572 
-0.269968 
-0.352697 
-0.26977 
-0.352798 
-0.499232 
-0.651883 
-0.352469 
-0.381362 
-0.652236 
-0.705844 
-9.60652e-05 
-0.269968 
0.000214572 
-0.352697 
-0.352469 
-0.652236 
-0.381362 
-0.705844 
-0.26977 
-0.499232 
-0.352798 
-0.651883 
-0.269454 
-0.352279 
-0.499208 
-0.651659 
-0.352022 
-0.380949 
-0.651942 
-0.705484 
-0.705484 
-0.651942 
-0.380949 
-0.352022 
-0.651659 
-0.499208 
-0.352279 
-0.269454 
-0.705844 
-0.381362 
-0.652236 
-0.352469 
-0.651883 
-0.352798 
-0.499232 
-0.26977 
-0.352697 
0.000214572 
-0.269968 
-9.60652e-05 
-0.352159 
-0.651195 
-0.268661 
-0.498445 
-0.380913 
-0.705507 
-0.351772 
-0.651598 
-0.498445 
-0.651195 
-0.268661 
-0.352159 
-0.651598 
-0.705507 
-0.351772 
-0.380913 
-0.000214572 
0.352697 
9.60652e-05 
0.269968 
0.352798 
0.651883 
0.26977 
0.499232 
0.381362 
0.705844 
0.352469 
0.652236 
0.499208 
0.651659 
0.269454 
0.352279 
0.651942 
0.705484 
0.352022 
0.380949 
0.381362 
0.352469 
0.705844 
0.652236 
0.352798 
0.26977 
0.651883 
0.499232 
-0.000214572 
9.60652e-05 
0.352697 
0.269968 
0.499208 
0.269454 
0.651659 
0.352279 
0.651942 
0.352022 
0.705484 
0.380949 
-0.705844 
-0.652236 
-0.381362 
-0.352469 
-0.352697 
-0.269968 
0.000214572 
-9.60652e-05 
-0.651883 
-0.499232 
-0.352798 
-0.26977 
-0.705484 
-0.380949 
-0.651942 
-0.352022 
-0.651659 
-0.352279 
-0.499208 
-0.269454 
-0.380913 
-0.351772 
-0.705507 
-0.651598 
-0.352159 
-0.268661 
-0.651195 
-0.498445 
-0.498445 
-0.268661 
-0.651195 
-0.352159 
-0.651598 
-0.351772 
-0.705507 
-0.380913 
0.705507 
0.651598 
0.380913 
0.351772 
0.651195 
0.498445 
0.352159 
0.268661 
0.705507 
0.380913 
0.651598 
0.351772 
0.651195 
0.352159 
0.498445 
0.268661 
0.705617 
0.92237 
0.65179 
0.852385 
0.651996 
0.852246 
0.498878 
0.652218 
0.852356 
0.922598 
0.652026 
0.706008 
0.922387 
0.998717 
0.85231 
0.922593 
0.998712 
0.922608 
0.922608 
0.852477 
0.922601 
0.852524 
0.706001 
0.652156 
0.852411 
0.652353 
0.652353 
0.499145 
0.922601 
0.706001 
0.852524 
0.652156 
-0.000214244 
0.000320026 
-0.269941 
-0.146505 
-0.270283 
-0.146066 
-0.499105 
-0.270283 
-0.146505 
0.000320026 
-0.269941 
-0.000214244 
-0.000338772 
0.000343538 
-0.145911 
-0.000338772 
0.499105 
0.270283 
0.270283 
0.146066 
0.269941 
0.146505 
0.000214244 
-0.000320026 
0.145911 
0.000338772 
0.000338772 
-0.000343538 
0.269941 
0.000214244 
0.146505 
-0.000320026 
0.705617 
0.65179 
0.92237 
0.852385 
0.922387 
0.85231 
0.998717 
0.922593 
0.852356 
0.652026 
0.922598 
0.706008 
0.651996 
0.498878 
0.852246 
0.652218 
-0.000214244 
-0.269941 
0.000320026 
-0.146505 
-0.000338772 
-0.145911 
0.000343538 
-0.000338772 
-0.146505 
-0.269941 
0.000320026 
-0.000214244 
-0.270283 
-0.499105 
-0.146066 
-0.270283 
-0.498878 
-0.652218 
-0.651996 
-0.852246 
-0.65179 
-0.852385 
-0.705617 
-0.92237 
-0.85231 
-0.922593 
-0.922387 
-0.998717 
-0.652026 
-0.706008 
-0.852356 
-0.922598 
-0.706001 
-0.652156 
-0.922601 
-0.852524 
-0.922608 
-0.852477 
-0.998712 
-0.922608 
-0.852524 
-0.652156 
-0.922601 
-0.706001 
-0.652353 
-0.499145 
-0.852411 
-0.652353 
-0.998717 
-0.922593 
-0.922387 
-0.85231 
-0.92237 
-0.852385 
-0.705617 
-0.65179 
-0.852246 
-0.652218 
-0.651996 
-0.498878 
-0.922598 
-0.706008 
-0.852356 
-0.652026 
-0.000343538 
0.000338772 
0.000338772 
0.145911 
-0.000320026 
0.146505 
0.000214244 
0.269941 
0.146066 
0.270283 
0.270283 
0.499105 
-0.000320026 
0.000214244 
0.146505 
0.269941 
-0.706001 
-0.922601 
-0.652156 
-0.852524 
-0.652353 
-0.852411 
-0.499145 
-0.652353 
-0.852524 
-0.922601 
-0.652156 
-0.706001 
-0.922608 
-0.998712 
-0.852477 
-0.922608 
-0.498878 
-0.651996 
-0.652218 
-0.852246 
-0.652026 
-0.852356 
-0.706008 
-0.922598 
-0.85231 
-0.922387 
-0.922593 
-0.998717 
-0.65179 
-0.705617 
-0.852385 
-0.92237 
-0.998717 
-0.922387 
-0.922593 
-0.85231 
-0.922598 
-0.852356 
-0.706008 
-0.652026 
-0.852246 
-0.651996 
-0.652218 
-0.498878 
-0.92237 
-0.705617 
-0.852385 
-0.65179 
0.706008 
0.922598 
0.652026 
0.852356 
0.652218 
0.852246 
0.498878 
0.651996 
0.852385 
0.92237 
0.65179 
0.705617 
0.922593 
0.998717 
0.85231 
0.922387 
0.499145 
0.652353 
0.652353 
0.852411 
0.652156 
0.852524 
0.706001 
0.922601 
0.852477 
0.922608 
0.922608 
0.998712 
0.652156 
0.706001 
0.852524 
0.922601 
0.706008 
0.652026 
0.922598 
0.852356 
0.922593 
0.85231 
0.998717 
0.922387 
0.852385 
0.65179 
0.92237 
0.705617 
0.652218 
0.498878 
0.852246 
0.651996 
0.498104 
0.651542 
0.651542 
0.852079 
0.65143 
0.852108 
0.705661 
0.922326 
0.852036 
0.922366 
0.922366 
0.998748 
0.65143 
0.705661 
0.852108 
0.922326 
1.09304e-05 
-8.62671e-05 
0.269681 
0.146046 
0.269819 
0.145862 
0.498814 
0.270131 
0.146194 
-0.000289831 
0.269775 
0.000229646 
0.000289831 
-0.146194 
-0.000229646 
-0.269775 
-0.145862 
-0.269819 
-0.270131 
-0.498814 
8.62671e-05 
-1.09304e-05 
-0.146046 
-0.269681 
1.09304e-05 
0.269681 
-8.62671e-05 
0.146046 
0.146194 
0.269775 
-0.000289831 
0.000229646 
0.269819 
0.498814 
0.145862 
0.270131 
8.62671e-05 
-0.146046 
-1.09304e-05 
-0.269681 
-0.145862 
-0.270131 
-0.269819 
-0.498814 
0.000289831 
-0.000229646 
-0.146194 
-0.269775 
-0.705661 
-0.922326 
-0.65143 
-0.852108 
-0.651542 
-0.852079 
-0.498104 
-0.651542 
-0.852108 
-0.922326 
-0.65143 
-0.705661 
-0.922366 
-0.998748 
-0.852036 
-0.922366 
-0.705661 
-0.65143 
-0.922326 
-0.852108 
-0.922366 
-0.852036 
-0.998748 
-0.922366 
-0.852108 
-0.65143 
-0.922326 
-0.705661 
-0.651542 
-0.498104 
-0.852079 
-0.651542 
-0.498814 
-0.270131 
-0.269819 
-0.145862 
-0.269681 
-0.146046 
-1.09304e-05 
8.62671e-05 
-0.269775 
-0.000229646 
-0.146194 
0.000289831 
0.000229646 
0.269775 
-0.000289831 
0.146194 
0.146046 
0.269681 
-8.62671e-05 
1.09304e-05 
0.270131 
0.498814 
0.145862 
0.269819 
0.998748 
0.922366 
0.922366 
0.852036 
0.922326 
0.852108 
0.705661 
0.65143 
0.852079 
0.651542 
0.651542 
0.498104 
0.922326 
0.705661 
0.852108 
0.65143 
0.000229646 
-0.000289831 
0.269775 
0.146194 
0.270131 
0.145862 
0.498814 
0.269819 
0.146046 
-8.62671e-05 
0.269681 
1.09304e-05 
-0.498814 
-0.269819 
-0.270131 
-0.145862 
-0.269775 
-0.146194 
-0.000229646 
0.000289831 
-0.269681 
-1.09304e-05 
-0.146046 
8.62671e-05 
1.1336e-07 
-6.01006e-05 
-6.01006e-05 
0.037971 
-5.98913e-05 
0.037853 
-0.000117178 
0.074422 
0.0377353 
0.0741918 
0.0741918 
0.14588 
-5.98913e-05 
-0.000117178 
0.037853 
0.074422 
0.000117178 
-0.074422 
5.98913e-05 
-0.037853 
6.01006e-05 
-0.037971 
-1.1336e-07 
6.01006e-05 
-0.037853 
-0.074422 
5.98913e-05 
0.000117178 
-0.0741918 
-0.14588 
-0.0377353 
-0.0741918 
0.000117178 
5.98913e-05 
-0.074422 
-0.037853 
-0.0741918 
-0.0377353 
-0.14588 
-0.0741918 
-0.037853 
5.98913e-05 
-0.074422 
0.000117178 
6.01006e-05 
-1.1336e-07 
-0.037971 
6.01006e-05 
0.14588 
0.0741918 
0.0741918 
0.0377353 
0.074422 
0.037853 
-0.000117178 
-5.98913e-05 
0.037971 
-6.01006e-05 
-6.01006e-05 
1.1336e-07 
0.074422 
-0.000117178 
0.037853 
-5.98913e-05 
-0.000117096 
0.0743114 
-0.00016788 
0.108001 
-0.000168614 
0.107906 
-0.000208706 
0.137414 
0.107573 
0.211546 
0.137027 
0.269395 
0.0740809 
0.145663 
0.107674 
0.21173 
-0.000117096 
-0.00016788 
0.0743114 
0.108001 
0.0740809 
0.107674 
0.145663 
0.21173 
0.107573 
0.137027 
0.211546 
0.269395 
-0.000168614 
-0.000208706 
0.107906 
0.137414 
0.145445 
0.211425 
0.211425 
0.307396 
0.21122 
0.307119 
0.269117 
0.391252 
0.306889 
0.39104 
0.39104 
0.498217 
0.21122 
0.269117 
0.307119 
0.391252 
0.000208706 
-0.137414 
0.000168614 
-0.107906 
0.00016788 
-0.108001 
0.000117096 
-0.0743114 
-0.107674 
-0.21173 
-0.0740809 
-0.145663 
-0.137027 
-0.269395 
-0.107573 
-0.211546 
-0.145663 
-0.21173 
-0.0740809 
-0.107674 
-0.0743114 
-0.108001 
0.000117096 
0.00016788 
-0.107906 
-0.137414 
0.000168614 
0.000208706 
-0.211546 
-0.269395 
-0.107573 
-0.137027 
-0.269117 
-0.391252 
-0.21122 
-0.307119 
-0.211425 
-0.307396 
-0.145445 
-0.211425 
-0.307119 
-0.391252 
-0.21122 
-0.269117 
-0.39104 
-0.498217 
-0.306889 
-0.39104 
0.000208706 
0.000168614 
-0.137414 
-0.107906 
-0.137027 
-0.107573 
-0.269395 
-0.211546 
-0.107674 
-0.0740809 
-0.21173 
-0.145663 
0.00016788 
0.000117096 
-0.108001 
-0.0743114 
-0.145663 
-0.0740809 
-0.21173 
-0.107674 
-0.211546 
-0.107573 
-0.269395 
-0.137027 
-0.107906 
0.000168614 
-0.137414 
0.000208706 
-0.0743114 
0.000117096 
-0.108001 
0.00016788 
-0.269117 
-0.21122 
-0.391252 
-0.307119 
-0.39104 
-0.306889 
-0.498217 
-0.39104 
-0.307119 
-0.21122 
-0.391252 
-0.269117 
-0.211425 
-0.145445 
-0.307396 
-0.211425 
0.269395 
0.137027 
0.211546 
0.107573 
0.21173 
0.107674 
0.145663 
0.0740809 
0.108001 
-0.00016788 
0.0743114 
-0.000117096 
0.137414 
-0.000208706 
0.107906 
-0.000168614 
0.269395 
0.211546 
0.137027 
0.107573 
0.137414 
0.107906 
-0.000208706 
-0.000168614 
0.108001 
0.0743114 
-0.00016788 
-0.000117096 
0.21173 
0.145663 
0.107674 
0.0740809 
0.498217 
0.39104 
0.39104 
0.306889 
0.391252 
0.307119 
0.269117 
0.21122 
0.307396 
0.211425 
0.211425 
0.145445 
0.391252 
0.269117 
0.307119 
0.21122 
0.381629 
0.374363 
0.194125 
0.190435 
0.19465 
0.190963 
-0.000290123 
-0.000290351 
0.190947 
0.179916 
-0.000279091 
-0.000171937 
0.374367 
0.352803 
0.190466 
0.17956 
0.381629 
0.194125 
0.374363 
0.190435 
0.374367 
0.190466 
0.352803 
0.17956 
0.190947 
-0.000279091 
0.179916 
-0.000171937 
0.19465 
-0.000290123 
0.190963 
-0.000290351 
0.000290123 
0.000290351 
-0.19465 
-0.190963 
-0.194125 
-0.190435 
-0.381629 
-0.374363 
-0.190466 
-0.17956 
-0.374367 
-0.352803 
0.000279091 
0.000171937 
-0.190947 
-0.179916 
-0.352803 
-0.17956 
-0.374367 
-0.190466 
-0.374363 
-0.190435 
-0.381629 
-0.194125 
-0.190963 
0.000290351 
-0.19465 
0.000290123 
-0.179916 
0.000171937 
-0.190947 
0.000279091 
0.000290123 
-0.19465 
0.000290351 
-0.190963 
0.000279091 
-0.190947 
0.000171937 
-0.179916 
-0.190466 
-0.374367 
-0.17956 
-0.352803 
-0.194125 
-0.381629 
-0.190435 
-0.374363 
-0.352803 
-0.374367 
-0.17956 
-0.190466 
-0.179916 
-0.190947 
0.000171937 
0.000279091 
-0.190963 
-0.19465 
0.000290351 
0.000290123 
-0.374363 
-0.381629 
-0.190435 
-0.194125 
-0.000171937 
0.179916 
-0.000279091 
0.190947 
-0.000290351 
0.190963 
-0.000290123 
0.19465 
0.190435 
0.374363 
0.194125 
0.381629 
0.17956 
0.352803 
0.190466 
0.374367 
-0.000171937 
-0.000279091 
0.179916 
0.190947 
0.17956 
0.190466 
0.352803 
0.374367 
0.190435 
0.194125 
0.374363 
0.381629 
-0.000290351 
-0.000290123 
0.190963 
0.19465 
-0.000286993 
-0.000282578 
0.194416 
0.1907 
0.193893 
0.190186 
0.381248 
0.373952 
0.190208 
0.179175 
0.373975 
0.352311 
-0.000282002 
-0.000267988 
0.190722 
0.179664 
-0.000263621 
-0.000250074 
0.1797 
0.161757 
0.179233 
0.161305 
0.352328 
0.317144 
0.16137 
0.137297 
0.317179 
0.269853 
-0.000222205 
-0.000164563 
0.161776 
0.137602 
0.352735 
0.179524 
0.374332 
0.190448 
0.374328 
0.190416 
0.381629 
0.194126 
0.190946 
-0.000290681 
0.19465 
-0.000290025 
0.179881 
-0.000173805 
0.19093 
-0.000278202 
-0.000286993 
0.194416 
-0.000282578 
0.1907 
-0.000282002 
0.190722 
-0.000267988 
0.179664 
0.190208 
0.373975 
0.179175 
0.352311 
0.193893 
0.381248 
0.190186 
0.373952 
-0.000263621 
0.1797 
-0.000250074 
0.161757 
-0.000222205 
0.161776 
-0.000164563 
0.137602 
0.16137 
0.317179 
0.137297 
0.269853 
0.179233 
0.352328 
0.161305 
0.317144 
0.352735 
0.374332 
0.179524 
0.190448 
0.179881 
0.19093 
-0.000173805 
-0.000278202 
0.190946 
0.19465 
-0.000290681 
-0.000290025 
0.374328 
0.381629 
0.190416 
0.194126 
-0.000211121 
0.13734 
-0.000239985 
0.161571 
-0.000241013 
0.161509 
-0.000264054 
0.179563 
0.161073 
0.316688 
0.179103 
0.352059 
0.136921 
0.269293 
0.161133 
0.316767 
-0.000265811 
0.179522 
-0.000282015 
0.190661 
-0.000282339 
0.19064 
-0.000287268 
0.194416 
0.190125 
0.373841 
0.19389 
0.381252 
0.179036 
0.352059 
0.190148 
0.37386 
-0.000211121 
-0.000239985 
0.13734 
0.161571 
0.136921 
0.161133 
0.269293 
0.316767 
0.161073 
0.179103 
0.316688 
0.352059 
-0.000241013 
-0.000264054 
0.161509 
0.179563 
-0.000265811 
-0.000282015 
0.179522 
0.190661 
0.179036 
0.190148 
0.352059 
0.37386 
0.190125 
0.19389 
0.373841 
0.381252 
-0.000282339 
-0.000287268 
0.19064 
0.194416 
0.000164563 
-0.137602 
0.000222205 
-0.161776 
0.000250074 
-0.161757 
0.000263621 
-0.1797 
-0.161305 
-0.317144 
-0.179233 
-0.352328 
-0.137297 
-0.269853 
-0.16137 
-0.317179 
0.000267988 
-0.179664 
0.000282002 
-0.190722 
0.000282578 
-0.1907 
0.000286993 
-0.194416 
-0.190186 
-0.373952 
-0.193893 
-0.381248 
-0.179175 
-0.352311 
-0.190208 
-0.373975 
0.000173805 
0.000278202 
-0.179881 
-0.19093 
-0.179524 
-0.190448 
-0.352735 
-0.374332 
-0.190416 
-0.194126 
-0.374328 
-0.381629 
0.000290681 
0.000290025 
-0.190946 
-0.19465 
0.000173805 
-0.179881 
0.000278202 
-0.19093 
0.000290681 
-0.190946 
0.000290025 
-0.19465 
-0.190416 
-0.374328 
-0.194126 
-0.381629 
-0.179524 
-0.352735 
-0.190448 
-0.374332 
0.000164563 
0.000222205 
-0.137602 
-0.161776 
-0.137297 
-0.16137 
-0.269853 
-0.317179 
-0.161305 
-0.179233 
-0.317144 
-0.352328 
0.000250074 
0.000263621 
-0.161757 
-0.1797 
0.000267988 
0.000282002 
-0.179664 
-0.190722 
-0.179175 
-0.190208 
-0.352311 
-0.373975 
-0.190186 
-0.193893 
-0.373952 
-0.381248 
0.000282578 
0.000286993 
-0.1907 
-0.194416 
-0.381248 
-0.373952 
-0.193893 
-0.190186 
-0.194416 
-0.1907 
0.000286993 
0.000282578 
-0.190722 
-0.179664 
0.000282002 
0.000267988 
-0.373975 
-0.352311 
-0.190208 
-0.179175 
-0.352328 
-0.317144 
-0.179233 
-0.161305 
-0.1797 
-0.161757 
0.000263621 
0.000250074 
-0.161776 
-0.137602 
0.000222205 
0.000164563 
-0.317179 
-0.269853 
-0.16137 
-0.137297 
-0.381629 
-0.194126 
-0.374328 
-0.190416 
-0.374332 
-0.190448 
-0.352735 
-0.179524 
-0.19093 
0.000278202 
-0.179881 
0.000173805 
-0.19465 
0.000290025 
-0.190946 
0.000290681 
0.000287268 
-0.194416 
0.000282339 
-0.19064 
0.000282015 
-0.190661 
0.000265811 
-0.179522 
-0.190148 
-0.37386 
-0.179036 
-0.352059 
-0.19389 
-0.381252 
-0.190125 
-0.373841 
0.000264054 
-0.179563 
0.000241013 
-0.161509 
0.000239985 
-0.161571 
0.000211121 
-0.13734 
-0.161133 
-0.316767 
-0.136921 
-0.269293 
-0.179103 
-0.352059 
-0.161073 
-0.316688 
-0.269293 
-0.316767 
-0.136921 
-0.161133 
-0.13734 
-0.161571 
0.000211121 
0.000239985 
-0.161509 
-0.179563 
0.000241013 
0.000264054 
-0.316688 
-0.352059 
-0.161073 
-0.179103 
-0.352059 
-0.37386 
-0.179036 
-0.190148 
-0.179522 
-0.190661 
0.000265811 
0.000282015 
-0.19064 
-0.194416 
0.000282339 
0.000287268 
-0.373841 
-0.381252 
-0.190125 
-0.19389 
-0.000290025 
0.19465 
-0.000290681 
0.190946 
-0.000278202 
0.19093 
-0.000173805 
0.179881 
0.190448 
0.374332 
0.179524 
0.352735 
0.194126 
0.381629 
0.190416 
0.374328 
0.269853 
0.317179 
0.137297 
0.16137 
0.137602 
0.161776 
-0.000164563 
-0.000222205 
0.161757 
0.1797 
-0.000250074 
-0.000263621 
0.317144 
0.352328 
0.161305 
0.179233 
0.352311 
0.373975 
0.179175 
0.190208 
0.179664 
0.190722 
-0.000267988 
-0.000282002 
0.1907 
0.194416 
-0.000282578 
-0.000286993 
0.373952 
0.381248 
0.190186 
0.193893 
-0.000290025 
-0.000290681 
0.19465 
0.190946 
0.194126 
0.190416 
0.381629 
0.374328 
0.190448 
0.179524 
0.374332 
0.352735 
-0.000278202 
-0.000173805 
0.19093 
0.179881 
0.352311 
0.179175 
0.373975 
0.190208 
0.373952 
0.190186 
0.381248 
0.193893 
0.1907 
-0.000282578 
0.194416 
-0.000286993 
0.179664 
-0.000267988 
0.190722 
-0.000282002 
0.269853 
0.137297 
0.317179 
0.16137 
0.317144 
0.161305 
0.352328 
0.179233 
0.161757 
-0.000250074 
0.1797 
-0.000263621 
0.137602 
-0.000164563 
0.161776 
-0.000222205 
-0.381629 
-0.374328 
-0.194126 
-0.190416 
-0.19465 
-0.190946 
0.000290025 
0.000290681 
-0.19093 
-0.179881 
0.000278202 
0.000173805 
-0.374332 
-0.352735 
-0.190448 
-0.179524 
-0.352328 
-0.179233 
-0.317144 
-0.161305 
-0.317179 
-0.16137 
-0.269853 
-0.137297 
-0.161776 
0.000222205 
-0.137602 
0.000164563 
-0.1797 
0.000263621 
-0.161757 
0.000250074 
-0.381248 
-0.193893 
-0.373952 
-0.190186 
-0.373975 
-0.190208 
-0.352311 
-0.179175 
-0.190722 
0.000282002 
-0.179664 
0.000267988 
-0.194416 
0.000286993 
-0.1907 
0.000282578 
0.000287268 
0.000282339 
-0.194416 
-0.19064 
-0.19389 
-0.190125 
-0.381252 
-0.373841 
-0.190148 
-0.179036 
-0.37386 
-0.352059 
0.000282015 
0.000265811 
-0.190661 
-0.179522 
0.000264054 
0.000241013 
-0.179563 
-0.161509 
-0.179103 
-0.161073 
-0.352059 
-0.316688 
-0.161133 
-0.136921 
-0.316767 
-0.269293 
0.000239985 
0.000211121 
-0.161571 
-0.13734 
-0.352059 
-0.179036 
-0.37386 
-0.190148 
-0.373841 
-0.190125 
-0.381252 
-0.19389 
-0.19064 
0.000282339 
-0.194416 
0.000287268 
-0.179522 
0.000265811 
-0.190661 
0.000282015 
-0.269293 
-0.136921 
-0.316767 
-0.161133 
-0.316688 
-0.161073 
-0.352059 
-0.179103 
-0.161509 
0.000241013 
-0.179563 
0.000264054 
-0.13734 
0.000211121 
-0.161571 
0.000239985 
0.381252 
0.373841 
0.19389 
0.190125 
0.194416 
0.19064 
-0.000287268 
-0.000282339 
0.190661 
0.179522 
-0.000282015 
-0.000265811 
0.37386 
0.352059 
0.190148 
0.179036 
0.352059 
0.316688 
0.179103 
0.161073 
0.179563 
0.161509 
-0.000264054 
-0.000241013 
0.161571 
0.13734 
-0.000239985 
-0.000211121 
0.316767 
0.269293 
0.161133 
0.136921 
0.352059 
0.179103 
0.316688 
0.161073 
0.316767 
0.161133 
0.269293 
0.136921 
0.161571 
-0.000239985 
0.13734 
-0.000211121 
0.179563 
-0.000264054 
0.161509 
-0.000241013 
0.381252 
0.19389 
0.373841 
0.190125 
0.37386 
0.190148 
0.352059 
0.179036 
0.190661 
-0.000282015 
0.179522 
-0.000265811 
0.194416 
-0.000287268 
0.19064 
-0.000282339 
-6.37105e-05 
-5.33616e-05 
0.0744871 
0.0379059 
0.0743693 
0.0378199 
0.146053 
0.0743729 
0.0379039 
-6.73647e-05 
0.0744875 
-3.38054e-05 
-5.84744e-05 
2.78074e-07 
0.0380151 
-5.37756e-05 
-2.78074e-07 
5.84744e-05 
5.37756e-05 
-0.0380151 
6.73647e-05 
-0.0379039 
3.38054e-05 
-0.0744875 
-0.0378199 
-0.0743693 
-0.0743729 
-0.146053 
5.33616e-05 
6.37105e-05 
-0.0379059 
-0.0744871 
-6.37105e-05 
0.0744871 
-5.33616e-05 
0.0379059 
-5.84744e-05 
0.0380151 
2.78074e-07 
-5.37756e-05 
0.0379039 
0.0744875 
-6.73647e-05 
-3.38054e-05 
0.0743693 
0.146053 
0.0378199 