# vtk DataFile Version 3.0
Arquivo gerado por PZ
ASCII

DATASET UNSTRUCTURED_GRID
POINTS 7552 float
-0.9375 -1 0
-0.9375 -0.9375 0
-0.875 -1 0
-0.875 -0.9375 0
-0.9375 -0.9375 0
-0.9375 -0.875 0
-0.875 -0.9375 0
-0.875 -0.875 0
-1 -0.9375 0
-1 -0.875 0
-0.9375 -0.9375 0
-0.9375 -0.875 0
0.875 -1 0
0.875 -0.9375 0
0.9375 -1 0
0.9375 -0.9375 0
0.9375 -0.9375 0
0.9375 -0.875 0
1 -0.9375 0
1 -0.875 0
0.875 -0.9375 0
0.875 -0.875 0
0.9375 -0.9375 0
0.9375 -0.875 0
-1 0.875 0
-1 0.9375 0
-0.9375 0.875 0
-0.9375 0.9375 0
-0.9375 0.875 0
-0.9375 0.9375 0
-0.875 0.875 0
-0.875 0.9375 0
-0.9375 0.9375 0
-0.9375 1 0
-0.875 0.9375 0
-0.875 1 0
0.875 0.875 0
0.875 0.9375 0
0.9375 0.875 0
0.9375 0.9375 0
0.9375 0.875 0
0.9375 0.9375 0
1 0.875 0
1 0.9375 0
0.875 0.9375 0
0.875 1 0
0.9375 0.9375 0
0.9375 1 0
-0.8125 -1 0
-0.8125 -0.9375 0
-0.75 -1 0
-0.75 -0.9375 0
-0.8125 -0.9375 0
-0.8125 -0.875 0
-0.75 -0.9375 0
-0.75 -0.875 0
-0.875 -0.9375 0
-0.875 -0.875 0
-0.8125 -0.9375 0
-0.8125 -0.875 0
-0.9375 -0.875 0
-0.9375 -0.8125 0
-0.875 -0.875 0
-0.875 -0.8125 0
-0.9375 -0.8125 0
-0.9375 -0.75 0
-0.875 -0.8125 0
-0.875 -0.75 0
-1 -0.8125 0
-1 -0.75 0
-0.9375 -0.8125 0
-0.9375 -0.75 0
-0.875 -0.875 0
-0.875 -0.8125 0
-0.8125 -0.875 0
-0.8125 -0.8125 0
-0.8125 -0.875 0
-0.8125 -0.8125 0
-0.75 -0.875 0
-0.75 -0.8125 0
-0.8125 -0.8125 0
-0.8125 -0.75 0
-0.75 -0.8125 0
-0.75 -0.75 0
-0.875 -0.8125 0
-0.875 -0.75 0
-0.8125 -0.8125 0
-0.8125 -0.75 0
0.75 -1 0
0.75 -0.9375 0
0.8125 -1 0
0.8125 -0.9375 0
0.8125 -0.9375 0
0.8125 -0.875 0
0.875 -0.9375 0
0.875 -0.875 0
0.75 -0.9375 0
0.75 -0.875 0
0.8125 -0.9375 0
0.8125 -0.875 0
0.875 -0.875 0
0.875 -0.8125 0
0.9375 -0.875 0
0.9375 -0.8125 0
0.9375 -0.8125 0
0.9375 -0.75 0
1 -0.8125 0
1 -0.75 0
0.875 -0.8125 0
0.875 -0.75 0
0.9375 -0.8125 0
0.9375 -0.75 0
0.75 -0.875 0
0.75 -0.8125 0
0.8125 -0.875 0
0.8125 -0.8125 0
0.8125 -0.875 0
0.8125 -0.8125 0
0.875 -0.875 0
0.875 -0.8125 0
0.8125 -0.8125 0
0.8125 -0.75 0
0.875 -0.8125 0
0.875 -0.75 0
0.75 -0.8125 0
0.75 -0.75 0
0.8125 -0.8125 0
0.8125 -0.75 0
-1 0.75 0
-1 0.8125 0
-0.9375 0.75 0
-0.9375 0.8125 0
-0.9375 0.75 0
-0.9375 0.8125 0
-0.875 0.75 0
-0.875 0.8125 0
-0.9375 0.8125 0
-0.9375 0.875 0
-0.875 0.8125 0
-0.875 0.875 0
-0.875 0.875 0
-0.875 0.9375 0
-0.8125 0.875 0
-0.8125 0.9375 0
-0.8125 0.875 0
-0.8125 0.9375 0
-0.75 0.875 0
-0.75 0.9375 0
-0.8125 0.9375 0
-0.8125 1 0
-0.75 0.9375 0
-0.75 1 0
-0.875 0.75 0
-0.875 0.8125 0
-0.8125 0.75 0
-0.8125 0.8125 0
-0.8125 0.75 0
-0.8125 0.8125 0
-0.75 0.75 0
-0.75 0.8125 0
-0.8125 0.8125 0
-0.8125 0.875 0
-0.75 0.8125 0
-0.75 0.875 0
-0.875 0.8125 0
-0.875 0.875 0
-0.8125 0.8125 0
-0.8125 0.875 0
0.75 0.875 0
0.75 0.9375 0
0.8125 0.875 0
0.8125 0.9375 0
0.8125 0.875 0
0.8125 0.9375 0
0.875 0.875 0
0.875 0.9375 0
0.75 0.9375 0
0.75 1 0
0.8125 0.9375 0
0.8125 1 0
0.875 0.75 0
0.875 0.8125 0
0.9375 0.75 0
0.9375 0.8125 0
0.9375 0.75 0
0.9375 0.8125 0
1 0.75 0
1 0.8125 0
0.875 0.8125 0
0.875 0.875 0
0.9375 0.8125 0
0.9375 0.875 0
0.75 0.75 0
0.75 0.8125 0
0.8125 0.75 0
0.8125 0.8125 0
0.8125 0.75 0
0.8125 0.8125 0
0.875 0.75 0
0.875 0.8125 0
0.8125 0.8125 0
0.8125 0.875 0
0.875 0.8125 0
0.875 0.875 0
0.75 0.8125 0
0.75 0.875 0
0.8125 0.8125 0
0.8125 0.875 0
-0.0625 -0.5 0
-0.0625 -0.4375 0
0 -0.5 0
0 -0.4375 0
-0.5 -0.0625 0
-0.5 0 0
-0.4375 -0.0625 0
-0.4375 0 0
0 -0.5 0
0 -0.4375 0
0.0625 -0.5 0
0.0625 -0.4375 0
0.4375 -0.0625 0
0.4375 0 0
0.5 -0.0625 0
0.5 0 0
-0.5 0 0
-0.5 0.0625 0
-0.4375 0 0
-0.4375 0.0625 0
-0.0625 0.4375 0
-0.0625 0.5 0
0 0.4375 0
0 0.5 0
0.4375 0 0
0.4375 0.0625 0
0.5 0 0
0.5 0.0625 0
0 0.4375 0
0 0.5 0
0.0625 0.4375 0
0.0625 0.5 0
-1 -0.5 0
-1 -0.4375 0
-0.9375 -0.5 0
-0.9375 -0.4375 0
-0.9375 -0.375 0
-0.9375 -0.3125 0
-0.875 -0.375 0
-0.875 -0.3125 0
-1 -0.3125 0
-1 -0.25 0
-0.9375 -0.3125 0
-0.9375 -0.25 0
-0.5625 -0.0625 0
-0.5625 0 0
-0.5 -0.0625 0
-0.5 0 0
-0.5 -1 0
-0.5 -0.9375 0
-0.4375 -1 0
-0.4375 -0.9375 0
-0.3125 -1 0
-0.3125 -0.9375 0
-0.25 -1 0
-0.25 -0.9375 0
-0.375 -0.9375 0
-0.375 -0.875 0
-0.3125 -0.9375 0
-0.3125 -0.875 0
-0.0625 -0.5625 0
-0.0625 -0.5 0
0 -0.5625 0
0 -0.5 0
-0.75 -1 0
-0.75 -0.9375 0
-0.6875 -1 0
-0.6875 -0.9375 0
-0.6875 -0.9375 0
-0.6875 -0.875 0
-0.625 -0.9375 0
-0.625 -0.875 0
-0.75 -0.9375 0
-0.75 -0.875 0
-0.6875 -0.9375 0
-0.6875 -0.875 0
-0.5625 -1 0
-0.5625 -0.9375 0
-0.5 -1 0
-0.5 -0.9375 0
-1 -0.75 0
-1 -0.6875 0
-0.9375 -0.75 0
-0.9375 -0.6875 0
-0.9375 -0.75 0
-0.9375 -0.6875 0
-0.875 -0.75 0
-0.875 -0.6875 0
-0.9375 -0.6875 0
-0.9375 -0.625 0
-0.875 -0.6875 0
-0.875 -0.625 0
-1 -0.5625 0
-1 -0.5 0
-0.9375 -0.5625 0
-0.9375 -0.5 0
0.25 -1 0
0.25 -0.9375 0
0.3125 -1 0
0.3125 -0.9375 0
0.3125 -0.9375 0
0.3125 -0.875 0
0.375 -0.9375 0
0.375 -0.875 0
0.4375 -1 0
0.4375 -0.9375 0
0.5 -1 0
0.5 -0.9375 0
0 -0.5625 0
0 -0.5 0
0.0625 -0.5625 0
0.0625 -0.5 0
-0.5625 0 0
-0.5625 0.0625 0
-0.5 0 0
-0.5 0.0625 0
-1 0.25 0
-1 0.3125 0
-0.9375 0.25 0
-0.9375 0.3125 0
-0.9375 0.3125 0
-0.9375 0.375 0
-0.875 0.3125 0
-0.875 0.375 0
-1 0.4375 0
-1 0.5 0
-0.9375 0.4375 0
-0.9375 0.5 0
0.9375 -0.5 0
0.9375 -0.4375 0
1 -0.5 0
1 -0.4375 0
0.875 -0.375 0
0.875 -0.3125 0
0.9375 -0.375 0
0.9375 -0.3125 0
0.9375 -0.3125 0
0.9375 -0.25 0
1 -0.3125 0
1 -0.25 0
0.5 -0.0625 0
0.5 0 0
0.5625 -0.0625 0
0.5625 0 0
0.5 -1 0
0.5 -0.9375 0
0.5625 -1 0
0.5625 -0.9375 0
0.6875 -1 0
0.6875 -0.9375 0
0.75 -1 0
0.75 -0.9375 0
0.6875 -0.9375 0
0.6875 -0.875 0
0.75 -0.9375 0
0.75 -0.875 0
0.625 -0.9375 0
0.625 -0.875 0
0.6875 -0.9375 0
0.6875 -0.875 0
0.875 -0.75 0
0.875 -0.6875 0
0.9375 -0.75 0
0.9375 -0.6875 0
0.9375 -0.75 0
0.9375 -0.6875 0
1 -0.75 0
1 -0.6875 0
0.875 -0.6875 0
0.875 -0.625 0
0.9375 -0.6875 0
0.9375 -0.625 0
0.9375 -0.5625 0
0.9375 -0.5 0
1 -0.5625 0
1 -0.5 0
0.5 0 0
0.5 0.0625 0
0.5625 0 0
0.5625 0.0625 0
0.9375 0.25 0
0.9375 0.3125 0
1 0.25 0
1 0.3125 0
0.875 0.3125 0
0.875 0.375 0
0.9375 0.3125 0
0.9375 0.375 0
0.9375 0.4375 0
0.9375 0.5 0
1 0.4375 0
1 0.5 0
0 0.5 0
0 0.5625 0
0.0625 0.5 0
0.0625 0.5625 0
0.4375 0.9375 0
0.4375 1 0
0.5 0.9375 0
0.5 1 0
0.3125 0.875 0
0.3125 0.9375 0
0.375 0.875 0
0.375 0.9375 0
0.25 0.9375 0
0.25 1 0
0.3125 0.9375 0
0.3125 1 0
-0.0625 0.5 0
-0.0625 0.5625 0
0 0.5 0
0 0.5625 0
-0.375 0.875 0
-0.375 0.9375 0
-0.3125 0.875 0
-0.3125 0.9375 0
-0.3125 0.9375 0
-0.3125 1 0
-0.25 0.9375 0
-0.25 1 0
-0.5 0.9375 0
-0.5 1 0
-0.4375 0.9375 0
-0.4375 1 0
-1 0.5 0
-1 0.5625 0
-0.9375 0.5 0
-0.9375 0.5625 0
-0.9375 0.625 0
-0.9375 0.6875 0
-0.875 0.625 0
-0.875 0.6875 0
-0.9375 0.6875 0
-0.9375 0.75 0
-0.875 0.6875 0
-0.875 0.75 0
-1 0.6875 0
-1 0.75 0
-0.9375 0.6875 0
-0.9375 0.75 0
-0.5625 0.9375 0
-0.5625 1 0
-0.5 0.9375 0
-0.5 1 0
-0.75 0.875 0
-0.75 0.9375 0
-0.6875 0.875 0
-0.6875 0.9375 0
-0.6875 0.875 0
-0.6875 0.9375 0
-0.625 0.875 0
-0.625 0.9375 0
-0.75 0.9375 0
-0.75 1 0
-0.6875 0.9375 0
-0.6875 1 0
0.9375 0.5 0
0.9375 0.5625 0
1 0.5 0
1 0.5625 0
0.875 0.625 0
0.875 0.6875 0
0.9375 0.625 0
0.9375 0.6875 0
0.9375 0.6875 0
0.9375 0.75 0
1 0.6875 0
1 0.75 0
0.875 0.6875 0
0.875 0.75 0
0.9375 0.6875 0
0.9375 0.75 0
0.625 0.875 0
0.625 0.9375 0
0.6875 0.875 0
0.6875 0.9375 0
0.6875 0.875 0
0.6875 0.9375 0
0.75 0.875 0
0.75 0.9375 0
0.6875 0.9375 0
0.6875 1 0
0.75 0.9375 0
0.75 1 0
0.5 0.9375 0
0.5 1 0
0.5625 0.9375 0
0.5625 1 0
-0.9375 -0.125 0
-0.9375 -0.0625 0
-0.875 -0.125 0
-0.875 -0.0625 0
-0.9375 0.0625 0
-0.9375 0.125 0
-0.875 0.0625 0
-0.875 0.125 0
-0.125 -0.9375 0
-0.125 -0.875 0
-0.0625 -0.9375 0
-0.0625 -0.875 0
0.0625 -0.9375 0
0.0625 -0.875 0
0.125 -0.9375 0
0.125 -0.875 0
0.875 -0.125 0
0.875 -0.0625 0
0.9375 -0.125 0
0.9375 -0.0625 0
0.875 0.0625 0
0.875 0.125 0
0.9375 0.0625 0
0.9375 0.125 0
0.0625 0.875 0
0.0625 0.9375 0
0.125 0.875 0
0.125 0.9375 0
-0.125 0.875 0
-0.125 0.9375 0
-0.0625 0.875 0
-0.0625 0.9375 0
-0.25 -0.5 0
-0.25 -0.4375 0
-0.1875 -0.5 0
-0.1875 -0.4375 0
-0.1875 -0.5 0
-0.1875 -0.4375 0
-0.125 -0.5 0
-0.125 -0.4375 0
-0.1875 -0.4375 0
-0.1875 -0.375 0
-0.125 -0.4375 0
-0.125 -0.375 0
-0.25 -0.4375 0
-0.25 -0.375 0
-0.1875 -0.4375 0
-0.1875 -0.375 0
-0.25 -0.375 0
-0.25 -0.3125 0
-0.1875 -0.375 0
-0.1875 -0.3125 0
-0.1875 -0.375 0
-0.1875 -0.3125 0
-0.125 -0.375 0
-0.125 -0.3125 0
-0.1875 -0.3125 0
-0.1875 -0.25 0
-0.125 -0.3125 0
-0.125 -0.25 0
-0.25 -0.3125 0
-0.25 -0.25 0
-0.1875 -0.3125 0
-0.1875 -0.25 0
-0.5 -0.25 0
-0.5 -0.1875 0
-0.4375 -0.25 0
-0.4375 -0.1875 0
-0.4375 -0.25 0
-0.4375 -0.1875 0
-0.375 -0.25 0
-0.375 -0.1875 0
-0.4375 -0.1875 0
-0.4375 -0.125 0
-0.375 -0.1875 0
-0.375 -0.125 0
-0.5 -0.1875 0
-0.5 -0.125 0
-0.4375 -0.1875 0
-0.4375 -0.125 0
-0.375 -0.25 0
-0.375 -0.1875 0
-0.3125 -0.25 0
-0.3125 -0.1875 0
-0.3125 -0.25 0
-0.3125 -0.1875 0
-0.25 -0.25 0
-0.25 -0.1875 0
-0.3125 -0.1875 0
-0.3125 -0.125 0
-0.25 -0.1875 0
-0.25 -0.125 0
-0.375 -0.1875 0
-0.375 -0.125 0
-0.3125 -0.1875 0
-0.3125 -0.125 0
0.125 -0.5 0
0.125 -0.4375 0
0.1875 -0.5 0
0.1875 -0.4375 0
0.1875 -0.5 0
0.1875 -0.4375 0
0.25 -0.5 0
0.25 -0.4375 0
0.1875 -0.4375 0
0.1875 -0.375 0
0.25 -0.4375 0
0.25 -0.375 0
0.125 -0.4375 0
0.125 -0.375 0
0.1875 -0.4375 0
0.1875 -0.375 0
0.125 -0.375 0
0.125 -0.3125 0
0.1875 -0.375 0
0.1875 -0.3125 0
0.1875 -0.375 0
0.1875 -0.3125 0
0.25 -0.375 0
0.25 -0.3125 0
0.1875 -0.3125 0
0.1875 -0.25 0
0.25 -0.3125 0
0.25 -0.25 0
0.125 -0.3125 0
0.125 -0.25 0
0.1875 -0.3125 0
0.1875 -0.25 0
0.25 -0.25 0
0.25 -0.1875 0
0.3125 -0.25 0
0.3125 -0.1875 0
0.3125 -0.25 0
0.3125 -0.1875 0
0.375 -0.25 0
0.375 -0.1875 0
0.3125 -0.1875 0
0.3125 -0.125 0
0.375 -0.1875 0
0.375 -0.125 0
0.25 -0.1875 0
0.25 -0.125 0
0.3125 -0.1875 0
0.3125 -0.125 0
0.375 -0.25 0
0.375 -0.1875 0
0.4375 -0.25 0
0.4375 -0.1875 0
0.4375 -0.25 0
0.4375 -0.1875 0
0.5 -0.25 0
0.5 -0.1875 0
0.4375 -0.1875 0
0.4375 -0.125 0
0.5 -0.1875 0
0.5 -0.125 0
0.375 -0.1875 0
0.375 -0.125 0
0.4375 -0.1875 0
0.4375 -0.125 0
-0.375 0.125 0
-0.375 0.1875 0
-0.3125 0.125 0
-0.3125 0.1875 0
-0.3125 0.125 0
-0.3125 0.1875 0
-0.25 0.125 0
-0.25 0.1875 0
-0.3125 0.1875 0
-0.3125 0.25 0
-0.25 0.1875 0
-0.25 0.25 0
[...]
POINT_DATA 7552
SCALARS Pressure float
LOOKUP_TABLE default
0.000151453 
0.038036 
3.84641e-05 
0.0746448 
0.0383103 
0.0746451 
0.0746451 
0.14635 
0.000151453 
3.84641e-05 
0.038036 
0.0746448 
-3.84641e-05 
-0.0746448 
-0.000151453 
-0.038036 
-0.038036 
-0.0746448 
-0.000151453 
-3.84641e-05 
-0.0746451 
-0.14635 
-0.0383103 
-0.0746451 
-3.84641e-05 
-0.000151453 
-0.0746448 
-0.038036 
-0.0746451 
-0.0383103 
-0.14635 
-0.0746451 
-0.038036 
-0.000151453 
-0.0746448 
-3.84641e-05 
0.14635 
0.0746451 
0.0746451 
0.0383103 
0.0746448 
0.038036 
3.84641e-05 
0.000151453 
0.0746448 
3.84641e-05 
0.038036 
0.000151453 
0.000230489 
0.108235 
4.51437e-05 
0.137886 
0.10862 
0.212203 
0.137926 
0.27031 
0.0748542 
0.146199 
0.108324 
0.212275 
0.0748542 
0.108324 
0.146199 
0.212275 
0.10862 
0.137926 
0.212203 
0.27031 
0.000230489 
4.51437e-05 
0.108235 
0.137886 
0.146508 
0.212272 
0.212272 
0.308477 
0.212526 
0.308424 
0.270315 
0.392469 
0.308871 
0.392891 
0.392891 
0.499728 
0.212526 
0.270315 
0.308424 
0.392469 
-4.51437e-05 
-0.137886 
-0.000230489 
-0.108235 
-0.108324 
-0.212275 
-0.0748542 
-0.146199 
-0.137926 
-0.27031 
-0.10862 
-0.212203 
-0.146199 
-0.212275 
-0.0748542 
-0.108324 
-0.108235 
-0.137886 
-0.000230489 
-4.51437e-05 
-0.212203 
-0.27031 
-0.10862 
-0.137926 
-0.270315 
-0.392469 
-0.212526 
-0.308424 
-0.212272 
-0.308477 
-0.146508 
-0.212272 
-0.308424 
-0.392469 
-0.212526 
-0.270315 
-0.392891 
-0.499728 
-0.308871 
-0.392891 
-4.51437e-05 
-0.000230489 
-0.137886 
-0.108235 
-0.137926 
-0.10862 
-0.27031 
-0.212203 
-0.108324 
-0.0748542 
-0.212275 
-0.146199 
-0.146199 
-0.0748542 
-0.212275 
-0.108324 
-0.212203 
-0.10862 
-0.27031 
-0.137926 
-0.108235 
-0.000230489 
-0.137886 
-4.51437e-05 
-0.270315 
-0.212526 
-0.392469 
-0.308424 
-0.392891 
-0.308871 
-0.499728 
-0.392891 
-0.308424 
-0.212526 
-0.392469 
-0.270315 
-0.212272 
-0.146508 
-0.308477 
-0.212272 
0.27031 
0.137926 
0.212203 
0.10862 
0.212275 
0.108324 
0.146199 
0.0748542 
0.137886 
4.51437e-05 
0.108235 
0.000230489 
0.27031 
0.212203 
0.137926 
0.10862 
0.137886 
0.108235 
4.51437e-05 
0.000230489 
0.212275 
0.146199 
0.108324 
0.0748542 
0.499728 
0.392891 
0.392891 
0.308871 
0.392469 
0.308424 
0.270315 
0.212526 
0.308477 
0.212272 
0.212272 
0.146508 
0.392469 
0.270315 
0.308424 
0.212526 
0.194922 
0.19114 
0.000111754 
0.000219351 
0.194922 
0.000111754 
0.19114 
0.000219351 
-0.000111754 
-0.000219351 
-0.194922 
-0.19114 
-0.19114 
-0.000219351 
-0.194922 
-0.000111754 
-0.000111754 
-0.194922 
-0.000219351 
-0.19114 
-0.19114 
-0.194922 
-0.000219351 
-0.000111754 
0.000219351 
0.19114 
0.000111754 
0.194922 
0.000219351 
0.000111754 
0.19114 
0.194922 
0.000114703 
0.000202542 
0.194916 
0.191122 
0.180379 
0.162327 
0.353391 
0.318087 
8.71598e-05 
0.000142512 
0.162099 
0.137828 
0.19114 
0.000218085 
0.194921 
0.000111717 
0.000114703 
0.194916 
0.000202542 
0.191122 
8.71598e-05 
0.162099 
0.000142512 
0.137828 
0.180379 
0.353391 
0.162327 
0.318087 
0.19114 
0.194921 
0.000218085 
0.000111717 
0.00015688 
0.137836 
0.000124952 
0.162117 
0.162356 
0.31804 
0.180444 
0.353276 
0.138112 
0.270225 
0.162349 
0.317844 
0.000191207 
0.191119 
0.000112079 
0.194908 
0.00015688 
0.000124952 
0.137836 
0.162117 
0.138112 
0.162349 
0.270225 
0.317844 
0.162356 
0.180444 
0.31804 
0.353276 
0.000191207 
0.000112079 
0.191119 
0.194908 
-0.000142512 
-0.137828 
-8.71598e-05 
-0.162099 
-0.162327 
-0.318087 
-0.180379 
-0.353391 
-0.000202542 
-0.191122 
-0.000114703 
-0.194916 
-0.000218085 
-0.000111717 
-0.19114 
-0.194921 
-0.000218085 
-0.19114 
-0.000111717 
-0.194921 
-0.000142512 
-8.71598e-05 
-0.137828 
-0.162099 
-0.162327 
-0.180379 
-0.318087 
-0.353391 
-0.000202542 
-0.000114703 
-0.191122 
-0.194916 
-0.194916 
-0.191122 
-0.000114703 
-0.000202542 
-0.353391 
-0.318087 
-0.180379 
-0.162327 
-0.162099 
-0.137828 
-8.71598e-05 
-0.000142512 
-0.194921 
-0.000111717 
-0.19114 
-0.000218085 
-0.000112079 
-0.194908 
-0.000191207 
-0.191119 
-0.000124952 
-0.162117 
-0.00015688 
-0.137836 
-0.162349 
-0.317844 
-0.138112 
-0.270225 
-0.180444 
-0.353276 
-0.162356 
-0.31804 
-0.270225 
-0.317844 
-0.138112 
-0.162349 
-0.137836 
-0.162117 
-0.00015688 
-0.000124952 
-0.31804 
-0.353276 
-0.162356 
-0.180444 
-0.191119 
-0.194908 
-0.000191207 
-0.000112079 
0.000111717 
0.194921 
0.000218085 
0.19114 
0.137828 
0.162099 
0.000142512 
8.71598e-05 
0.318087 
0.353391 
0.162327 
0.180379 
0.191122 
0.194916 
0.000202542 
0.000114703 
0.000111717 
0.000218085 
0.194921 
0.19114 
0.191122 
0.000202542 
0.194916 
0.000114703 
0.318087 
0.162327 
0.353391 
0.180379 
0.137828 
0.000142512 
0.162099 
8.71598e-05 
-0.194921 
-0.19114 
-0.000111717 
-0.000218085 
-0.353391 
-0.180379 
-0.318087 
-0.162327 
-0.162099 
-8.71598e-05 
-0.137828 
-0.000142512 
-0.194916 
-0.000114703 
-0.191122 
-0.000202542 
-0.000112079 
-0.000191207 
-0.194908 
-0.191119 
-0.180444 
-0.162356 
-0.353276 
-0.31804 
-0.162349 
-0.138112 
-0.317844 
-0.270225 
-0.000124952 
-0.00015688 
-0.162117 
-0.137836 
-0.191119 
-0.000191207 
-0.194908 
-0.000112079 
-0.270225 
-0.138112 
-0.317844 
-0.162349 
-0.31804 
-0.162356 
-0.353276 
-0.180444 
-0.137836 
-0.00015688 
-0.162117 
-0.000124952 
0.194908 
0.191119 
0.000112079 
0.000191207 
0.353276 
0.31804 
0.180444 
0.162356 
0.162117 
0.137836 
0.000124952 
0.00015688 
0.317844 
0.270225 
0.162349 
0.138112 
0.353276 
0.180444 
0.31804 
0.162356 
0.317844 
0.162349 
0.270225 
0.138112 
0.162117 
0.000124952 
0.137836 
0.00015688 
0.194908 
0.000112079 
0.191119 
0.000191207 
0.0745926 
0.0382641 
0.146388 
0.0745964 
-0.0382641 
-0.0745926 
-0.0745964 
-0.146388 
0.0745926 
0.146388 
0.0382641 
0.0745964 
-0.0382641 
-0.0745964 
-0.0745926 
-0.146388 
-0.146388 
-0.0745964 
-0.0745926 
-0.0382641 
0.0745964 
0.146388 
0.0382641 
0.0745926 
0.0745964 
0.0382641 
0.146388 
0.0745926 
-0.146388 
-0.0745926 
-0.0745964 
-0.0382641 
0.707108 
0.693496 
0.555572 
0.544903 
0.555591 
0.544913 
0.382698 
0.375342 
0.544881 
0.513328 
0.375378 
0.353543 
0.693541 
0.653205 
0.544891 
0.513299 
0.653378 
0.587816 
0.513209 
0.462002 
0.513252 
0.462019 
0.353676 
0.31813 
0.461924 
0.392957 
0.318299 
0.270586 
0.588002 
0.499963 
0.461941 
0.392818 
0.707108 
0.555572 
0.693496 
0.544903 
0.693541 
0.544891 
0.653205 
0.513299 
0.544881 
0.375378 
0.513328 
0.353543 
0.555591 
0.382698 
0.544913 
0.375342 
0.653378 
0.513209 
0.587816 
0.462002 
0.588002 
0.461941 
0.499963 
0.392818 
0.461924 
0.318299 
0.392957 
0.270586 
0.513252 
0.353676 
0.462019 
0.31813 
-0.382698 
-0.375342 
-0.555591 
-0.544913 
-0.555572 
-0.544903 
-0.707108 
-0.693496 
-0.544891 
-0.513299 
-0.693541 
-0.653205 
-0.375378 
-0.353543 
-0.544881 
-0.513328 
-0.353676 
-0.31813 
-0.513252 
-0.462019 
-0.513209 
-0.462002 
-0.653378 
-0.587816 
-0.461941 
-0.392818 
-0.588002 
-0.499963 
-0.318299 
-0.270586 
-0.461924 
-0.392957 
-0.499963 
-0.392818 
-0.588002 
-0.461941 
-0.587816 
-0.462002 
-0.653378 
-0.513209 
-0.462019 
-0.31813 
-0.513252 
-0.353676 
-0.392957 
-0.270586 
-0.461924 
-0.318299 
-0.653205 
-0.513299 
-0.693541 
-0.544891 
-0.693496 
-0.544903 
-0.707108 
-0.555572 
-0.544913 
-0.375342 
-0.555591 
-0.382698 
-0.513328 
-0.353543 
-0.544881 
-0.375378 
-0.353676 
-0.513252 
-0.31813 
-0.462019 
-0.318299 
-0.461924 
-0.270586 
-0.392957 
-0.461941 
-0.588002 
-0.392818 
-0.499963 
-0.513209 
-0.653378 
-0.462002 
-0.587816 
-0.382698 
-0.555591 
-0.375342 
-0.544913 
-0.375378 
-0.544881 
-0.353543 
-0.513328 
-0.544891 
-0.693541 
-0.513299 
-0.653205 
-0.555572 
-0.707108 
-0.544903 
-0.693496 
-0.499963 
-0.588002 
-0.392818 
-0.461941 
-0.392957 
-0.461924 
-0.270586 
-0.318299 
-0.462019 
-0.513252 
-0.31813 
-0.353676 
-0.587816 
-0.653378 
-0.462002 
-0.513209 
-0.653205 
-0.693541 
-0.513299 
-0.544891 
-0.513328 
-0.544881 
-0.353543 
-0.375378 
-0.544913 
-0.555591 
-0.375342 
-0.382698 
-0.693496 
-0.707108 
-0.544903 
-0.555572 
0.353543 
0.513328 
0.375378 
0.544881 
0.375342 
0.544913 
0.382698 
0.555591 
0.544903 
0.693496 
0.555572 
0.707108 
0.513299 
0.653205 
0.544891 
0.693541 
0.270586 
0.392957 
0.318299 
0.461924 
0.31813 
0.462019 
0.353676 
0.513252 
0.462002 
0.587816 
0.513209 
0.653378 
0.392818 
0.499963 
0.461941 
0.588002 
0.270586 
0.318299 
0.392957 
0.461924 
0.392818 
0.461941 
0.499963 
0.588002 
0.462002 
0.513209 
0.587816 
0.653378 
0.31813 
0.353676 
0.462019 
0.513252 
0.353543 
0.375378 
0.513328 
0.544881 
0.513299 
0.544891 
0.653205 
0.693541 
0.544903 
0.555572 
0.693496 
0.707108 
0.375342 
0.382698 
0.544913 
0.555591 
0.382692 
0.37534 
0.555586 
0.544904 
0.555568 
0.544898 
0.707104 
0.693492 
0.544874 
0.513308 
0.693546 
0.653194 
0.375358 
0.353546 
0.54489 
0.513299 
0.353588 
0.318187 
0.513303 
0.461946 
0.513196 
0.462003 
0.65337 
0.587818 
0.461939 
0.392819 
0.587989 
0.499973 
0.318214 
0.270582 
0.46195 
0.392909 
0.499983 
0.392785 
0.58798 
0.461959 
0.587805 
0.462005 
0.653386 
0.513197 
0.462025 
0.318119 
0.51324 
0.353687 
0.392949 
0.27059 
0.461928 
0.318292 
0.653205 
0.513293 
0.693535 
0.544895 
0.693495 
0.544903 
0.70711 
0.55557 
0.544913 
0.375342 
0.55559 
0.382699 
0.513326 
0.353543 
0.544883 
0.375374 
0.353588 
0.513303 
0.318187 
0.461946 
0.318214 
0.46195 
0.270582 
0.392909 
0.461939 
0.587989 
0.392819 
0.499973 
0.513196 
0.65337 
0.462003 
0.587818 
0.382692 
0.555586 
0.37534 
0.544904 
0.375358 
0.54489 
0.353546 
0.513299 
0.544874 
0.693546 
0.513308 
0.653194 
0.555568 
0.707104 
0.544898 
0.693492 
0.499983 
0.58798 
0.392785 
0.461959 
0.392949 
0.461928 
0.27059 
0.318292 
0.462025 
0.51324 
0.318119 
0.353687 
0.587805 
0.653386 
0.462005 
0.513197 
0.653205 
0.693535 
0.513293 
0.544895 
0.513326 
0.544883 
0.353543 
0.375374 
0.544913 
0.55559 
0.375342 
0.382699 
0.693495 
0.70711 
0.544903 
0.55557 
0.353532 
0.513317 
0.375364 
0.544881 
0.375339 
0.544904 
0.382691 
0.555588 
0.544898 
0.693492 
0.555564 
0.707107 
0.51329 
0.653202 
0.544889 
0.693532 
0.270592 
0.392944 
0.318283 
0.46193 
0.318116 
0.462017 
0.353662 
0.51324 
0.462004 
0.587803 
0.513191 
0.653383 
0.392786 
0.499988 
0.46196 
0.587975 
0.270592 
0.318283 
0.392944 
0.46193 
0.392786 
0.46196 
0.499988 
0.587975 
0.462004 
0.513191 
0.587803 
0.653383 
0.318116 
0.353662 
0.462017 
0.51324 
0.353532 
0.375364 
0.513317 
0.544881 
0.51329 
0.544889 
0.653202 
0.693532 
0.544898 
0.555564 
0.693492 
0.707107 
0.375339 
0.382691 
0.544904 
0.555588 
-0.353546 
-0.513299 
-0.375358 
-0.54489 
-0.37534 
-0.544904 
-0.382692 
-0.555586 
-0.544898 
-0.693492 
-0.555568 
-0.707104 
-0.513308 
-0.653194 
-0.544874 
-0.693546 
-0.270582 
-0.392909 
-0.318214 
-0.46195 
-0.318187 
-0.461946 
-0.353588 
-0.513303 
-0.462003 
-0.587818 
-0.513196 
-0.65337 
-0.392819 
-0.499973 
-0.461939 
-0.587989 
-0.27059 
-0.318292 
-0.392949 
-0.461928 
-0.392785 
-0.461959 
-0.499983 
-0.58798 
-0.462005 
-0.513197 
-0.587805 
-0.653386 
-0.318119 
-0.353687 
-0.462025 
-0.51324 
-0.353543 
-0.375374 
-0.513326 
-0.544883 
-0.513293 
-0.544895 
-0.653205 
-0.693535 
-0.544903 
-0.55557 
-0.693495 
-0.70711 
-0.375342 
-0.382699 
-0.544913 
-0.55559 
-0.353543 
-0.513326 
-0.375374 
-0.544883 
-0.375342 
-0.544913 
-0.382699 
-0.55559 
-0.544903 
-0.693495 
-0.55557 
-0.70711 
-0.513293 
-0.653205 
-0.544895 
-0.693535 
-0.27059 
-0.392949 
-0.318292 
-0.461928 
-0.318119 
-0.462025 
-0.353687 
-0.51324 
-0.462005 
-0.587805 
-0.513197 
-0.653386 
-0.392785 
-0.499983 
-0.461959 
-0.58798 
-0.270582 
-0.318214 
-0.392909 
-0.46195 
-0.392819 
-0.461939 
-0.499973 
-0.587989 
-0.462003 
-0.513196 
-0.587818 
-0.65337 
-0.318187 
-0.353588 
-0.461946 
-0.513303 
-0.353546 
-0.375358 
-0.513299 
-0.54489 
-0.513308 
-0.544874 
-0.653194 
-0.693546 
-0.544898 
-0.555568 
-0.693492 
-0.707104 
-0.37534 
-0.382692 
-0.544904 
-0.555586 
-0.707104 
-0.693492 
-0.555568 
-0.544898 
-0.555586 
-0.544904 
-0.382692 
-0.37534 
-0.54489 
-0.513299 
-0.375358 
-0.353546 
-0.693546 
-0.653194 
-0.544874 
-0.513308 
-0.65337 
-0.587818 
-0.513196 
-0.462003 
-0.513303 
-0.461946 
-0.353588 
-0.318187 
-0.46195 
-0.392909 
-0.318214 
-0.270582 
-0.587989 
-0.499973 
-0.461939 
-0.392819 
-0.70711 
-0.55557 
-0.693495 
-0.544903 
-0.693535 
-0.544895 
-0.653205 
-0.513293 
-0.544883 
-0.375374 
-0.513326 
-0.353543 
-0.55559 
-0.382699 
-0.544913 
-0.375342 
-0.653386 
-0.513197 
-0.587805 
-0.462005 
-0.58798 
-0.461959 
-0.499983 
-0.392785 
-0.461928 
-0.318292 
-0.392949 
-0.27059 
-0.51324 
-0.353687 
-0.462025 
-0.318119 
-0.353662 
-0.51324 
-0.318116 
-0.462017 
-0.318283 
-0.46193 
-0.270592 
-0.392944 
-0.46196 
-0.587975 
-0.392786 
-0.499988 
-0.513191 
-0.653383 
-0.462004 
-0.587803 
-0.382691 
-0.555588 
-0.375339 
-0.544904 
-0.375364 
-0.544881 
-0.353532 
-0.513317 
-0.544889 
-0.693532 
-0.51329 
-0.653202 
-0.555564 
-0.707107 
-0.544898 
-0.693492 
-0.499988 
-0.587975 
-0.392786 
-0.46196 
-0.392944 
-0.46193 
-0.270592 
-0.318283 
-0.462017 
-0.51324 
-0.318116 
-0.353662 
-0.587803 
-0.653383 
-0.462004 
-0.513191 
-0.653202 
-0.693532 
-0.51329 
-0.544889 
-0.513317 
-0.544881 
-0.353532 
-0.375364 
-0.544904 
-0.555588 
-0.375339 
-0.382691 
-0.693492 
-0.707107 
-0.544898 
-0.555564 
0.353687 
0.51324 
0.318119 
0.462025 
0.318292 
0.461928 
0.27059 
0.392949 
0.461959 
0.58798 
0.392785 
0.499983 
0.513197 
0.653386 
0.462005 
0.587805 
0.382699 
0.55559 
0.375342 
0.544913 
0.375374 
0.544883 
0.353543 
0.513326 
0.544895 
0.693535 
0.513293 
0.653205 
0.55557 
0.70711 
0.544903 
0.693495 
0.499973 
0.587989 
0.392819 
0.461939 
0.392909 
0.46195 
0.270582 
0.318214 
0.461946 
0.513303 
0.318187 
0.353588 
0.587818 
0.65337 
0.462003 
0.513196 
0.653194 
0.693546 
0.513308 
0.544874 
0.513299 
0.54489 
0.353546 
0.375358 
0.544904 
0.555586 
0.37534 
0.382692 
0.693492 
0.707104 
0.544898 
0.555568 
0.382699 
0.375342 
0.55559 
0.544913 
0.55557 
0.544903 
0.70711 
0.693495 
0.544895 
0.513293 
0.693535 
0.653205 
0.375374 
0.353543 
0.544883 
0.513326 
0.353687 
0.318119 
0.51324 
0.462025 
0.513197 
0.462005 
0.653386 
0.587805 
0.461959 
0.392785 
0.58798 
0.499983 
0.318292 
0.27059 
0.461928 
0.392949 
0.499973 
0.392819 
0.587989 
0.461939 
0.587818 
0.462003 
0.65337 
0.513196 
0.461946 
0.318187 
0.513303 
0.353588 
0.392909 
0.270582 
0.46195 
0.318214 
0.653194 
0.513308 
0.693546 
0.544874 
0.693492 
0.544898 
0.707104 
0.555568 
0.544904 
0.37534 
0.555586 
0.382692 
0.513299 
0.353546 
0.54489 
0.375358 
-0.70711 
-0.693495 
-0.55557 
-0.544903 
-0.55559 
-0.544913 
-0.382699 
-0.375342 
-0.544883 
-0.513326 
-0.375374 
-0.353543 
-0.693535 
-0.653205 
-0.544895 
-0.513293 
-0.653386 
-0.587805 
-0.513197 
-0.462005 
-0.51324 
-0.462025 
-0.353687 
-0.318119 
-0.461928 
-0.392949 
-0.318292 
-0.27059 
-0.58798 
-0.499983 
-0.461959 
-0.392785 
-0.707104 
-0.555568 
-0.693492 
-0.544898 
-0.693546 
-0.544874 
-0.653194 
-0.513308 
-0.54489 
-0.375358 
-0.513299 
-0.353546 
-0.555586 
-0.382692 
-0.544904 
-0.37534 
-0.65337 
-0.513196 
-0.587818 
-0.462003 
-0.587989 
-0.461939 
-0.499973 
-0.392819 
-0.46195 
-0.318214 
-0.392909 
-0.270582 
-0.513303 
-0.353588 
-0.461946 
-0.318187 
-0.382691 
-0.375339 
-0.555588 
-0.544904 
-0.555564 
-0.544898 
-0.707107 
-0.693492 
-0.544889 
-0.51329 
-0.693532 
-0.653202 
-0.375364 
-0.353532 
-0.544881 
-0.513317 
-0.353662 
-0.318116 
-0.51324 
-0.462017 
-0.513191 
-0.462004 
-0.653383 
-0.587803 
-0.46196 
-0.392786 
-0.587975 
-0.499988 
-0.318283 
-0.270592 
-0.46193 
-0.392944 
-0.499988 
-0.392786 
-0.587975 
-0.46196 
-0.587803 
-0.462004 
-0.653383 
-0.513191 
-0.462017 
-0.318116 
-0.51324 
-0.353662 
-0.392944 
-0.270592 
-0.46193 
-0.318283 
-0.653202 
-0.51329 
-0.693532 
-0.544889 
-0.693492 
-0.544898 
-0.707107 
-0.555564 
-0.544904 
-0.375339 
-0.555588 
-0.382691 
-0.513317 
-0.353532 
-0.544881 
-0.375364 
0.707107 
0.693492 
0.555564 
0.544898 
0.555588 
0.544904 
0.382691 
0.375339 
0.544881 
0.513317 
0.375364 
0.353532 
0.693532 
0.653202 
0.544889 
0.51329 
0.653383 
0.587803 
0.513191 
0.462004 
0.51324 
0.462017 
0.353662 
0.318116 
0.46193 
0.392944 
0.318283 
0.270592 
0.587975 
0.499988 
0.46196 
0.392786 
0.707107 
0.555564 
0.693492 
0.544898 
0.693532 
0.544889 
0.653202 
0.51329 
0.544881 
0.375364 
0.513317 
0.353532 
0.555588 
0.382691 
0.544904 
0.375339 
0.653383 
0.513191 
0.587803 
0.462004 
0.587975 
0.46196 
0.499988 
0.392786 
0.46193 
0.318283 
0.392944 
0.270592 
0.51324 
0.353662 
0.462017 
0.318116 
0.831338 
0.815403 
0.707401 
0.693851 
0.815309 
0.768065 
0.693715 
0.653716 
0.906105 
0.853641 
0.815528 
0.768411 
0.853642 
0.906103 
0.768408 
0.815527 
0.768064 
0.815308 
0.653723 
0.693712 
0.815401 
0.831337 
0.693845 
0.7074 
0.353265 
0.318054 
0.180466 
0.162339 
0.180017 
0.162058 
0.000252421 
0.000137198 
0.162074 
0.137754 
0.000106493 
0.000186858 
0.317828 
0.27016 
0.162249 
0.138027 
0.768132 
0.691238 
0.653416 
0.588347 
0.691085 
0.587854 
0.587854 
0.500506 
0.768132 
0.653416 
0.691238 
0.588347 
0.270333 
0.21243 
0.137926 
0.108659 
0.137818 
0.108211 
3.45381e-05 
0.00023409 
0.212548 
0.146271 
0.108409 
0.0748742 
0.499806 
0.392931 
0.392931 
0.308963 
0.392569 
0.308534 
0.270366 
0.212803 
0.392569 
0.270366 
0.308534 
0.212803 
0.853642 
0.768408 
0.906103 
0.815527 
0.815401 
0.693845 
0.831337 
0.7074 
0.768064 
0.653723 
0.815308 
0.693712 
0.906105 
0.815528 
0.853641 
0.768411 
0.815309 
0.693715 
0.768065 
0.653716 
0.831338 
0.707401 
0.815403 
0.693851 
0.353265 
0.180466 
0.318054 
0.162339 
0.317828 
0.162249 
0.27016 
0.138027 
0.162074 
0.000106493 
0.137754 
0.000186858 
0.180017 
0.000252421 
0.162058 
0.000137198 
0.270333 
0.137926 
0.21243 
0.108659 
0.212548 
0.108409 
0.146271 
0.0748742 
0.137818 
3.45381e-05 
0.108211 
0.00023409 
-0.707401 
-0.693851 
-0.831338 
-0.815403 
-0.815528 
-0.768411 
-0.906105 
-0.853641 
-0.693715 
-0.653716 
-0.815309 
-0.768065 
-0.653723 
-0.693712 
-0.768064 
-0.815308 
-0.768408 
-0.815527 
-0.853642 
-0.906103 
-0.693845 
-0.7074 
-0.815401 
-0.831337 
-0.653416 
-0.588347 
-0.768132 
-0.691238 
-0.691238 
-0.588347 
-0.768132 
-0.653416 
-0.587854 
-0.500506 
-0.691085 
-0.587854 
-0.000252421 
-0.000137198 
-0.180017 
-0.162058 
-0.180466 
-0.162339 
-0.353265 
-0.318054 
-0.162249 
-0.138027 
-0.317828 
-0.27016 
-0.000106493 
-0.000186858 
-0.162074 
-0.137754 
-0.270366 
-0.212803 
-0.392569 
-0.308534 
-0.392931 
-0.308963 
-0.499806 
-0.392931 
-0.308534 
-0.212803 
-0.392569 
-0.270366 
-3.45381e-05 
-0.00023409 
-0.137818 
-0.108211 
-0.137926 
-0.108659 
-0.270333 
-0.21243 
-0.108409 
-0.0748742 
-0.212548 
-0.146271 
-0.853641 
-0.768411 
-0.906105 
-0.815528 
-0.815403 
-0.693851 
-0.831338 
-0.707401 
-0.768065 
-0.653716 
-0.815309 
-0.693715 
-0.27016 
-0.138027 
-0.317828 
-0.162249 
-0.318054 
-0.162339 
-0.353265 
-0.180466 
-0.162058 
-0.000137198 
-0.180017 
-0.000252421 
-0.137754 
-0.000186858 
-0.162074 
-0.000106493 
-0.146271 
-0.0748742 
-0.212548 
-0.108409 
-0.21243 
-0.108659 
-0.270333 
-0.137926 
-0.108211 
-0.00023409 
-0.137818 
-3.45381e-05 
-0.906103 
-0.815527 
-0.853642 
-0.768408 
-0.815308 
-0.693712 
-0.768064 
-0.653723 
-0.831337 
-0.7074 
-0.815401 
-0.693845 
-0.000252421 
-0.180017 
-0.000137198 
-0.162058 
-0.000106493 
-0.162074 
-0.000186858 
-0.137754 
-0.162249 
-0.317828 
-0.138027 
-0.27016 
-0.180466 
-0.353265 
-0.162339 
-0.318054 
-0.270366 
-0.392569 
-0.212803 
-0.308534 
-0.308534 
-0.392569 
-0.212803 
-0.270366 
-0.392931 
-0.499806 
-0.308963 
-0.392931 
-3.45381e-05 
-0.137818 
-0.00023409 
-0.108211 
-0.108409 
-0.212548 
-0.0748742 
-0.146271 
-0.137926 
-0.270333 
-0.108659 
-0.21243 
-0.653416 
-0.768132 
-0.588347 
-0.691238 
-0.587854 
-0.691085 
-0.500506 
-0.587854 
-0.691238 
-0.768132 
-0.588347 
-0.653416 
-0.707401 
-0.831338 
-0.693851 
-0.815403 