# vtk DataFile Version 3.0
Arquivo gerado por PZ
ASCII

DATASET UNSTRUCTURED_GRID
POINTS 5728 float
-0.5 -0.625 0
-0.5 -0.5 0
-0.375 -0.625 0
-0.375 -0.5 0
-0.5 -0.5 0
-0.5 -0.375 0
-0.375 -0.5 0
-0.375 -0.375 0
0 -0.125 0
0 0 0
0.125 -0.125 0
0.125 0 0
-0.125 -0.125 0
-0.125 0 0
0 -0.125 0
0 0 0
-0.625 -0.5 0
-0.625 -0.375 0
-0.5 -0.5 0
-0.5 -0.375 0
-0.125 0 0
-0.125 0.125 0
0 0 0
0 0.125 0
0.375 -0.625 0
0.375 -0.5 0
0.5 -0.625 0
0.5 -0.5 0
0.375 -0.5 0
0.375 -0.375 0
0.5 -0.5 0
0.5 -0.375 0
0.5 -0.5 0
0.5 -0.375 0
0.625 -0.5 0
0.625 -0.375 0
0 0 0
0 0.125 0
0.125 0 0
0.125 0.125 0
-0.5 0.375 0
-0.5 0.5 0
-0.375 0.375 0
-0.375 0.5 0
-0.625 0.375 0
-0.625 0.5 0
-0.5 0.375 0
-0.5 0.5 0
-0.5 0.5 0
-0.5 0.625 0
-0.375 0.5 0
-0.375 0.625 0
0.5 0.375 0
0.5 0.5 0
0.625 0.375 0
0.625 0.5 0
0.375 0.375 0
0.375 0.5 0
0.5 0.375 0
0.5 0.5 0
0.375 0.5 0
0.375 0.625 0
0.5 0.5 0
0.5 0.625 0
-0.625 -0.625 0
-0.625 -0.5 0
-0.5 -0.625 0
-0.5 -0.5 0
0.5 -0.625 0
0.5 -0.5 0
0.625 -0.625 0
0.625 -0.5 0
-0.625 0.5 0
-0.625 0.625 0
-0.5 0.5 0
-0.5 0.625 0
0.5 0.5 0
0.5 0.625 0
0.625 0.5 0
0.625 0.625 0
-0.9375 -1 0
-0.9375 -0.9375 0
-0.875 -1 0
-0.875 -0.9375 0
-0.9375 -0.9375 0
-0.9375 -0.875 0
-0.875 -0.9375 0
-0.875 -0.875 0
-1 -0.9375 0
-1 -0.875 0
-0.9375 -0.9375 0
-0.9375 -0.875 0
0.875 -1 0
0.875 -0.9375 0
0.9375 -1 0
0.9375 -0.9375 0
0.9375 -0.9375 0
0.9375 -0.875 0
1 -0.9375 0
1 -0.875 0
0.875 -0.9375 0
0.875 -0.875 0
0.9375 -0.9375 0
0.9375 -0.875 0
-1 0.875 0
-1 0.9375 0
-0.9375 0.875 0
-0.9375 0.9375 0
-0.9375 0.875 0
-0.9375 0.9375 0
-0.875 0.875 0
-0.875 0.9375 0
-0.9375 0.9375 0
-0.9375 1 0
-0.875 0.9375 0
-0.875 1 0
0.875 0.875 0
0.875 0.9375 0
0.9375 0.875 0
0.9375 0.9375 0
0.9375 0.875 0
0.9375 0.9375 0
1 0.875 0
1 0.9375 0
0.875 0.9375 0
0.875 1 0
0.9375 0.9375 0
0.9375 1 0
-0.8125 -1 0
-0.8125 -0.9375 0
-0.75 -1 0
-0.75 -0.9375 0
-0.8125 -0.9375 0
-0.8125 -0.875 0
-0.75 -0.9375 0
-0.75 -0.875 0
-0.875 -0.9375 0
-0.875 -0.875 0
-0.8125 -0.9375 0
-0.8125 -0.875 0
-0.9375 -0.875 0
-0.9375 -0.8125 0
-0.875 -0.875 0
-0.875 -0.8125 0
-0.9375 -0.8125 0
-0.9375 -0.75 0
-0.875 -0.8125 0
-0.875 -0.75 0
-1 -0.8125 0
-1 -0.75 0
-0.9375 -0.8125 0
-0.9375 -0.75 0
-0.875 -0.875 0
-0.875 -0.8125 0
-0.8125 -0.875 0
-0.8125 -0.8125 0
-0.8125 -0.875 0
-0.8125 -0.8125 0
-0.75 -0.875 0
-0.75 -0.8125 0
-0.8125 -0.8125 0
-0.8125 -0.75 0
-0.75 -0.8125 0
-0.75 -0.75 0
-0.875 -0.8125 0
-0.875 -0.75 0
-0.8125 -0.8125 0
-0.8125 -0.75 0
0.75 -1 0
0.75 -0.9375 0
0.8125 -1 0
0.8125 -0.9375 0
0.8125 -0.9375 0
0.8125 -0.875 0
0.875 -0.9375 0
0.875 -0.875 0
0.75 -0.9375 0
0.75 -0.875 0
0.8125 -0.9375 0
0.8125 -0.875 0
0.875 -0.875 0
0.875 -0.8125 0
0.9375 -0.875 0
0.9375 -0.8125 0
0.9375 -0.8125 0
0.9375 -0.75 0
1 -0.8125 0
1 -0.75 0
0.875 -0.8125 0
0.875 -0.75 0
0.9375 -0.8125 0
0.9375 -0.75 0
0.75 -0.875 0
0.75 -0.8125 0
0.8125 -0.875 0
0.8125 -0.8125 0
0.8125 -0.875 0
0.8125 -0.8125 0
0.875 -0.875 0
0.875 -0.8125 0
0.8125 -0.8125 0
0.8125 -0.75 0
0.875 -0.8125 0
0.875 -0.75 0
0.75 -0.8125 0
0.75 -0.75 0
0.8125 -0.8125 0
0.8125 -0.75 0
-1 0.75 0
-1 0.8125 0
-0.9375 0.75 0
-0.9375 0.8125 0
-0.9375 0.75 0
-0.9375 0.8125 0
-0.875 0.75 0
-0.875 0.8125 0
-0.9375 0.8125 0
-0.9375 0.875 0
-0.875 0.8125 0
-0.875 0.875 0
-0.875 0.875 0
-0.875 0.9375 0
-0.8125 0.875 0
-0.8125 0.9375 0
-0.8125 0.875 0
-0.8125 0.9375 0
-0.75 0.875 0
-0.75 0.9375 0
-0.8125 0.9375 0
-0.8125 1 0
-0.75 0.9375 0
-0.75 1 0
-0.875 0.75 0
-0.875 0.8125 0
-0.8125 0.75 0
-0.8125 0.8125 0
-0.8125 0.75 0
-0.8125 0.8125 0
-0.75 0.75 0
-0.75 0.8125 0
-0.8125 0.8125 0
-0.8125 0.875 0
-0.75 0.8125 0
-0.75 0.875 0
-0.875 0.8125 0
-0.875 0.875 0
-0.8125 0.8125 0
-0.8125 0.875 0
0.75 0.875 0
0.75 0.9375 0
0.8125 0.875 0
0.8125 0.9375 0
0.8125 0.875 0
0.8125 0.9375 0
0.875 0.875 0
0.875 0.9375 0
0.75 0.9375 0
0.75 1 0
0.8125 0.9375 0
0.8125 1 0
0.875 0.75 0
0.875 0.8125 0
0.9375 0.75 0
0.9375 0.8125 0
0.9375 0.75 0
0.9375 0.8125 0
1 0.75 0
1 0.8125 0
0.875 0.8125 0
0.875 0.875 0
0.9375 0.8125 0
0.9375 0.875 0
0.75 0.75 0
0.75 0.8125 0
0.8125 0.75 0
0.8125 0.8125 0
0.8125 0.75 0
0.8125 0.8125 0
0.875 0.75 0
0.875 0.8125 0
0.8125 0.8125 0
0.8125 0.875 0
0.875 0.8125 0
0.875 0.875 0
0.75 0.8125 0
0.75 0.875 0
0.8125 0.8125 0
0.8125 0.875 0
-0.0625 -0.5 0
-0.0625 -0.4375 0
0 -0.5 0
0 -0.4375 0
-0.5 -0.0625 0
-0.5 0 0
-0.4375 -0.0625 0
-0.4375 0 0
0 -0.5 0
0 -0.4375 0
0.0625 -0.5 0
0.0625 -0.4375 0
0.4375 -0.0625 0
0.4375 0 0
0.5 -0.0625 0
0.5 0 0
-0.5 0 0
-0.5 0.0625 0
-0.4375 0 0
-0.4375 0.0625 0
-0.0625 0.4375 0
-0.0625 0.5 0
0 0.4375 0
0 0.5 0
0.4375 0 0
0.4375 0.0625 0
0.5 0 0
0.5 0.0625 0
0 0.4375 0
0 0.5 0
0.0625 0.4375 0
0.0625 0.5 0
-1 -0.5 0
-1 -0.4375 0
-0.9375 -0.5 0
-0.9375 -0.4375 0
-0.9375 -0.375 0
-0.9375 -0.3125 0
-0.875 -0.375 0
-0.875 -0.3125 0
-1 -0.3125 0
-1 -0.25 0
-0.9375 -0.3125 0
-0.9375 -0.25 0
-0.5625 -0.0625 0
-0.5625 0 0
-0.5 -0.0625 0
-0.5 0 0
-0.5 -1 0
-0.5 -0.9375 0
-0.4375 -1 0
-0.4375 -0.9375 0
-0.3125 -1 0
-0.3125 -0.9375 0
-0.25 -1 0
-0.25 -0.9375 0
-0.375 -0.9375 0
-0.375 -0.875 0
-0.3125 -0.9375 0
-0.3125 -0.875 0
-0.0625 -0.5625 0
-0.0625 -0.5 0
0 -0.5625 0
0 -0.5 0
-0.75 -1 0
-0.75 -0.9375 0
-0.6875 -1 0
-0.6875 -0.9375 0
-0.6875 -0.9375 0
-0.6875 -0.875 0
-0.625 -0.9375 0
-0.625 -0.875 0
-0.75 -0.9375 0
-0.75 -0.875 0
-0.6875 -0.9375 0
-0.6875 -0.875 0
-0.5625 -1 0
-0.5625 -0.9375 0
-0.5 -1 0
-0.5 -0.9375 0
-1 -0.75 0
-1 -0.6875 0
-0.9375 -0.75 0
-0.9375 -0.6875 0
-0.9375 -0.75 0
-0.9375 -0.6875 0
-0.875 -0.75 0
-0.875 -0.6875 0
-0.9375 -0.6875 0
-0.9375 -0.625 0
-0.875 -0.6875 0
-0.875 -0.625 0
-1 -0.5625 0
-1 -0.5 0
-0.9375 -0.5625 0
-0.9375 -0.5 0
0.25 -1 0
0.25 -0.9375 0
0.3125 -1 0
0.3125 -0.9375 0
0.3125 -0.9375 0
0.3125 -0.875 0
0.375 -0.9375 0
0.375 -0.875 0
0.4375 -1 0
0.4375 -0.9375 0
0.5 -1 0
0.5 -0.9375 0
0 -0.5625 0
0 -0.5 0
0.0625 -0.5625 0
0.0625 -0.5 0
-0.5625 0 0
-0.5625 0.0625 0
-0.5 0 0
-0.5 0.0625 0
-1 0.25 0
-1 0.3125 0
-0.9375 0.25 0
-0.9375 0.3125 0
-0.9375 0.3125 0
-0.9375 0.375 0
-0.875 0.3125 0
-0.875 0.375 0
-1 0.4375 0
-1 0.5 0
-0.9375 0.4375 0
-0.9375 0.5 0
0.9375 -0.5 0
0.9375 -0.4375 0
1 -0.5 0
1 -0.4375 0
0.875 -0.375 0
0.875 -0.3125 0
0.9375 -0.375 0
0.9375 -0.3125 0
0.9375 -0.3125 0
0.9375 -0.25 0
1 -0.3125 0
1 -0.25 0
0.5 -0.0625 0
0.5 0 0
0.5625 -0.0625 0
0.5625 0 0
0.5 -1 0
0.5 -0.9375 0
0.5625 -1 0
0.5625 -0.9375 0
0.6875 -1 0
0.6875 -0.9375 0
0.75 -1 0
0.75 -0.9375 0
0.6875 -0.9375 0
0.6875 -0.875 0
0.75 -0.9375 0
0.75 -0.875 0
0.625 -0.9375 0
0.625 -0.875 0
0.6875 -0.9375 0
0.6875 -0.875 0
0.875 -0.75 0
0.875 -0.6875 0
0.9375 -0.75 0
0.9375 -0.6875 0
0.9375 -0.75 0
0.9375 -0.6875 0
1 -0.75 0
1 -0.6875 0
0.875 -0.6875 0
0.875 -0.625 0
0.9375 -0.6875 0
0.9375 -0.625 0
0.9375 -0.5625 0
0.9375 -0.5 0
1 -0.5625 0
1 -0.5 0
0.5 0 0
0.5 0.0625 0
0.5625 0 0
0.5625 0.0625 0
0.9375 0.25 0
0.9375 0.3125 0
1 0.25 0
1 0.3125 0
0.875 0.3125 0
0.875 0.375 0
0.9375 0.3125 0
0.9375 0.375 0
0.9375 0.4375 0
0.9375 0.5 0
1 0.4375 0
1 0.5 0
0 0.5 0
0 0.5625 0
0.0625 0.5 0
0.0625 0.5625 0
0.4375 0.9375 0
0.4375 1 0
0.5 0.9375 0
0.5 1 0
0.3125 0.875 0
0.3125 0.9375 0
0.375 0.875 0
0.375 0.9375 0
0.25 0.9375 0
0.25 1 0
0.3125 0.9375 0
0.3125 1 0
-0.0625 0.5 0
-0.0625 0.5625 0
0 0.5 0
0 0.5625 0
-0.375 0.875 0
-0.375 0.9375 0
-0.3125 0.875 0
-0.3125 0.9375 0
-0.3125 0.9375 0
-0.3125 1 0
-0.25 0.9375 0
-0.25 1 0
-0.5 0.9375 0
-0.5 1 0
-0.4375 0.9375 0
-0.4375 1 0
-1 0.5 0
-1 0.5625 0
-0.9375 0.5 0
-0.9375 0.5625 0
-0.9375 0.625 0
-0.9375 0.6875 0
-0.875 0.625 0
-0.875 0.6875 0
-0.9375 0.6875 0
-0.9375 0.75 0
-0.875 0.6875 0
-0.875 0.75 0
-1 0.6875 0
-1 0.75 0
-0.9375 0.6875 0
-0.9375 0.75 0
-0.5625 0.9375 0
-0.5625 1 0
-0.5 0.9375 0
-0.5 1 0
-0.75 0.875 0
-0.75 0.9375 0
-0.6875 0.875 0
-0.6875 0.9375 0
-0.6875 0.875 0
-0.6875 0.9375 0
-0.625 0.875 0
-0.625 0.9375 0
-0.75 0.9375 0
-0.75 1 0
-0.6875 0.9375 0
-0.6875 1 0
0.9375 0.5 0
0.9375 0.5625 0
1 0.5 0
1 0.5625 0
0.875 0.625 0
0.875 0.6875 0
0.9375 0.625 0
0.9375 0.6875 0
0.9375 0.6875 0
0.9375 0.75 0
1 0.6875 0
1 0.75 0
0.875 0.6875 0
0.875 0.75 0
0.9375 0.6875 0
0.9375 0.75 0
0.625 0.875 0
0.625 0.9375 0
0.6875 0.875 0
0.6875 0.9375 0
0.6875 0.875 0
0.6875 0.9375 0
0.75 0.875 0
0.75 0.9375 0
0.6875 0.9375 0
0.6875 1 0
0.75 0.9375 0
0.75 1 0
0.5 0.9375 0
0.5 1 0
0.5625 0.9375 0
0.5625 1 0
-0.9375 -0.125 0
-0.9375 -0.0625 0
-0.875 -0.125 0
-0.875 -0.0625 0
-0.9375 0.0625 0
-0.9375 0.125 0
-0.875 0.0625 0
-0.875 0.125 0
-0.125 -0.9375 0
-0.125 -0.875 0
-0.0625 -0.9375 0
-0.0625 -0.875 0
0.0625 -0.9375 0
0.0625 -0.875 0
0.125 -0.9375 0
0.125 -0.875 0
0.875 -0.125 0
0.875 -0.0625 0
0.9375 -0.125 0
0.9375 -0.0625 0
0.875 0.0625 0
0.875 0.125 0
0.9375 0.0625 0
0.9375 0.125 0
0.0625 0.875 0
0.0625 0.9375 0
0.125 0.875 0
0.125 0.9375 0
-0.125 0.875 0
-0.125 0.9375 0
-0.0625 0.875 0
-0.0625 0.9375 0
-0.25 -0.5 0
-0.25 -0.4375 0
-0.1875 -0.5 0
-0.1875 -0.4375 0
-0.1875 -0.5 0
-0.1875 -0.4375 0
-0.125 -0.5 0
-0.125 -0.4375 0
-0.1875 -0.4375 0
-0.1875 -0.375 0
-0.125 -0.4375 0
-0.125 -0.375 0
-0.25 -0.4375 0
-0.25 -0.375 0
-0.1875 -0.4375 0
-0.1875 -0.375 0
-0.25 -0.375 0
-0.25 -0.3125 0
-0.1875 -0.375 0
-0.1875 -0.3125 0
-0.1875 -0.375 0
-0.1875 -0.3125 0
-0.125 -0.375 0
-0.125 -0.3125 0
-0.1875 -0.3125 0
-0.1875 -0.25 0
-0.125 -0.3125 0
-0.125 -0.25 0
-0.25 -0.3125 0
-0.25 -0.25 0
-0.1875 -0.3125 0
-0.1875 -0.25 0
-0.5 -0.25 0
-0.5 -0.1875 0
-0.4375 -0.25 0
-0.4375 -0.1875 0
-0.4375 -0.25 0
-0.4375 -0.1875 0
-0.375 -0.25 0
-0.375 -0.1875 0
-0.4375 -0.1875 0
-0.4375 -0.125 0
-0.375 -0.1875 0
-0.375 -0.125 0
-0.5 -0.1875 0
-0.5 -0.125 0
-0.4375 -0.1875 0
-0.4375 -0.125 0
-0.375 -0.25 0
-0.375 -0.1875 0
-0.3125 -0.25 0
-0.3125 -0.1875 0
-0.3125 -0.25 0
-0.3125 -0.1875 0
-0.25 -0.25 0
-0.25 -0.1875 0
-0.3125 -0.1875 0
-0.3125 -0.125 0
-0.25 -0.1875 0
-0.25 -0.125 0
-0.375 -0.1875 0
-0.375 -0.125 0
-0.3125 -0.1875 0
-0.3125 -0.125 0
0.125 -0.5 0
0.125 -0.4375 0
0.1875 -0.5 0
0.1875 -0.4375 0
0.1875 -0.5 0
0.1875 -0.4375 0
0.25 -0.5 0
0.25 -0.4375 0
0.1875 -0.4375 0
0.1875 -0.375 0
0.25 -0.4375 0
[...]
POINT_DATA 5728
SCALARS Pressure float
LOOKUP_TABLE default
0.923266 
0.998817 
0.853784 
0.923279 
0.998817 
0.923279 
0.923279 
0.853803 
-7.43826e-05 
-0.000682606 
-0.145968 
-7.43826e-05 
0.145968 
7.43826e-05 
7.43826e-05 
0.000682606 
0.923266 
0.853784 
0.998817 
0.923279 
-7.43826e-05 
-0.145968 
-0.000682606 
-7.43826e-05 
-0.853784 
-0.923279 
-0.923266 
-0.998817 
-0.923279 
-0.853803 
-0.998817 
-0.923279 
-0.998817 
-0.923279 
-0.923266 
-0.853784 
0.000682606 
7.43826e-05 
7.43826e-05 
0.145968 
-0.923279 
-0.998817 
-0.853803 
-0.923279 
-0.853784 
-0.923266 
-0.923279 
-0.998817 
-0.998817 
-0.923266 
-0.923279 
-0.853784 
0.923279 
0.998817 
0.853784 
0.923266 
0.853803 
0.923279 
0.923279 
0.998817 
0.923279 
0.853784 
0.998817 
0.923266 
0.853779 
0.923266 
0.923266 
0.998817 
-0.923266 
-0.998817 
-0.853779 
-0.923266 
-0.923266 
-0.853779 
-0.998817 
-0.923266 
0.998817 
0.923266 
0.923266 
0.853779 
-4.65359e-06 
0.0380202 
-6.74699e-07 
0.0745812 
0.0380093 
0.0745941 
0.0745941 
0.146318 
-4.65359e-06 
-6.74699e-07 
0.0380202 
0.0745812 
6.74699e-07 
-0.0745812 
4.65359e-06 
-0.0380202 
-0.0380202 
-0.0745812 
4.65359e-06 
6.74699e-07 
-0.0745941 
-0.146318 
-0.0380093 
-0.0745941 
6.74699e-07 
4.65359e-06 
-0.0745812 
-0.0380202 
-0.0745941 
-0.0380093 
-0.146318 
-0.0745941 
-0.0380202 
4.65359e-06 
-0.0745812 
6.74699e-07 
0.146318 
0.0745941 
0.0745941 
0.0380093 
0.0745812 
0.0380202 
-6.74699e-07 
-4.65359e-06 
0.0745812 
-6.74699e-07 
0.0380202 
-4.65359e-06 
-2.83289e-05 
0.108326 
1.63938e-05 
0.137848 
0.108248 
0.2125 
0.137931 
0.270414 
0.0745673 
0.146341 
0.108317 
0.212441 
0.0745673 
0.108317 
0.146341 
0.212441 
0.108248 
0.137931 
0.2125 
0.270414 
-2.83289e-05 
1.63938e-05 
0.108326 
0.137848 
0.146346 
0.212446 
0.212446 
0.308435 
0.212462 
0.308363 
0.270461 
0.392533 
0.30862 
0.392285 
0.392285 
0.499476 
0.212462 
0.270461 
0.308363 
0.392533 
-1.63938e-05 
-0.137848 
2.83289e-05 
-0.108326 
-0.108317 
-0.212441 
-0.0745673 
-0.146341 
-0.137931 
-0.270414 
-0.108248 
-0.2125 
-0.146341 
-0.212441 
-0.0745673 
-0.108317 
-0.108326 
-0.137848 
2.83289e-05 
-1.63938e-05 
-0.2125 
-0.270414 
-0.108248 
-0.137931 
-0.270461 
-0.392533 
-0.212462 
-0.308363 
-0.212446 
-0.308435 
-0.146346 
-0.212446 
-0.308363 
-0.392533 
-0.212462 
-0.270461 
-0.392285 
-0.499476 
-0.30862 
-0.392285 
-1.63938e-05 
2.83289e-05 
-0.137848 
-0.108326 
-0.137931 
-0.108248 
-0.270414 
-0.2125 
-0.108317 
-0.0745673 
-0.212441 
-0.146341 
-0.146341 
-0.0745673 
-0.212441 
-0.108317 
-0.2125 
-0.108248 
-0.270414 
-0.137931 
-0.108326 
2.83289e-05 
-0.137848 
-1.63938e-05 
-0.270461 
-0.212462 
-0.392533 
-0.308363 
-0.392285 
-0.30862 
-0.499476 
-0.392285 
-0.308363 
-0.212462 
-0.392533 
-0.270461 
-0.212446 
-0.146346 
-0.308435 
-0.212446 
0.270414 
0.137931 
0.2125 
0.108248 
0.212441 
0.108317 
0.146341 
0.0745673 
0.137848 
1.63938e-05 
0.108326 
-2.83289e-05 
0.270414 
0.2125 
0.137931 
0.108248 
0.137848 
0.108326 
1.63938e-05 
-2.83289e-05 
0.212441 
0.146341 
0.108317 
0.0745673 
0.499476 
0.392285 
0.392285 
0.30862 
0.392533 
0.308363 
0.270461 
0.212462 
0.308435 
0.212446 
0.212446 
0.146346 
0.392533 
0.270461 
0.308363 
0.212462 
0.195049 
0.191339 
3.95127e-05 
-4.17366e-05 
0.195049 
3.95127e-05 
0.191339 
-4.17366e-05 
-3.95127e-05 
4.17366e-05 
-0.195049 
-0.191339 
-0.191339 
4.17366e-05 
-0.195049 
-3.95127e-05 
-3.95127e-05 
-0.195049 
4.17366e-05 
-0.191339 
-0.191339 
-0.195049 
4.17366e-05 
-3.95127e-05 
-4.17366e-05 
0.191339 
3.95127e-05 
0.195049 
-4.17366e-05 
3.95127e-05 
0.191339 
0.195049 
3.9538e-05 
-4.14357e-05 
0.195028 
0.191309 
0.180092 
0.162156 
0.353262 
0.317959 
-3.14061e-05 
2.59254e-05 
0.162165 
0.137906 
0.191336 
-4.17371e-05 
0.195049 
3.95146e-05 
3.9538e-05 
0.195028 
-4.14357e-05 
0.191309 
-3.14061e-05 
0.162165 
2.59254e-05 
0.137906 
0.180092 
0.353262 
0.162156 
0.317959 
0.191336 
0.195049 
-4.17371e-05 
3.95146e-05 
2.01878e-05 
0.137866 
-3.10013e-05 
0.162119 
0.16219 
0.31794 
0.180031 
0.353339 
0.137845 
0.270507 
0.162132 
0.318008 
-4.13304e-05 
0.19131 
3.94069e-05 
0.195028 
2.01878e-05 
-3.10013e-05 
0.137866 
0.162119 
0.137845 
0.162132 
0.270507 
0.318008 
0.16219 
0.180031 
0.31794 
0.353339 
-4.13304e-05 
3.94069e-05 
0.19131 
0.195028 
-2.59254e-05 
-0.137906 
3.14061e-05 
-0.162165 
-0.162156 
-0.317959 
-0.180092 
-0.353262 
4.14357e-05 
-0.191309 
-3.9538e-05 
-0.195028 
4.17371e-05 
-3.95146e-05 
-0.191336 
-0.195049 
4.17371e-05 
-0.191336 
-3.95146e-05 
-0.195049 
-2.59254e-05 
3.14061e-05 
-0.137906 
-0.162165 
-0.162156 
-0.180092 
-0.317959 
-0.353262 
4.14357e-05 
-3.9538e-05 
-0.191309 
-0.195028 
-0.195028 
-0.191309 
-3.9538e-05 
4.14357e-05 
-0.353262 
-0.317959 
-0.180092 
-0.162156 
-0.162165 
-0.137906 
3.14061e-05 
-2.59254e-05 
-0.195049 
-3.95146e-05 
-0.191336 
4.17371e-05 
-3.94069e-05 
-0.195028 
4.13304e-05 
-0.19131 
3.10013e-05 
-0.162119 
-2.01878e-05 
-0.137866 
-0.162132 
-0.318008 
-0.137845 
-0.270507 
-0.180031 
-0.353339 
-0.16219 
-0.31794 
-0.270507 
-0.318008 
-0.137845 
-0.162132 
-0.137866 
-0.162119 
-2.01878e-05 
3.10013e-05 
-0.31794 
-0.353339 
-0.16219 
-0.180031 
-0.19131 
-0.195028 
4.13304e-05 
-3.94069e-05 
3.95146e-05 
0.195049 
-4.17371e-05 
0.191336 
0.137906 
0.162165 
2.59254e-05 
-3.14061e-05 
0.317959 
0.353262 
0.162156 
0.180092 
0.191309 
0.195028 
-4.14357e-05 
3.9538e-05 
3.95146e-05 
-4.17371e-05 
0.195049 
0.191336 
0.191309 
-4.14357e-05 
0.195028 
3.9538e-05 
0.317959 
0.162156 
0.353262 
0.180092 
0.137906 
2.59254e-05 
0.162165 
-3.14061e-05 
-0.195049 
-0.191336 
-3.95146e-05 
4.17371e-05 
-0.353262 
-0.180092 
-0.317959 
-0.162156 
-0.162165 
3.14061e-05 
-0.137906 
-2.59254e-05 
-0.195028 
-3.9538e-05 
-0.191309 
4.14357e-05 
-3.94069e-05 
4.13304e-05 
-0.195028 
-0.19131 
-0.180031 
-0.16219 
-0.353339 
-0.31794 
-0.162132 
-0.137845 
-0.318008 
-0.270507 
3.10013e-05 
-2.01878e-05 
-0.162119 
-0.137866 
-0.19131 
4.13304e-05 
-0.195028 
-3.94069e-05 
-0.270507 
-0.137845 
-0.318008 
-0.162132 
-0.31794 
-0.16219 
-0.353339 
-0.180031 
-0.137866 
-2.01878e-05 
-0.162119 
3.10013e-05 
0.195028 
0.19131 
3.94069e-05 
-4.13304e-05 
0.353339 
0.31794 
0.180031 
0.16219 
0.162119 
0.137866 
-3.10013e-05 
2.01878e-05 
0.318008 
0.270507 
0.162132 
0.137845 
0.353339 
0.180031 
0.31794 
0.16219 
0.318008 
0.162132 
0.270507 
0.137845 
0.162119 
-3.10013e-05 
0.137866 
2.01878e-05 
0.195028 
3.94069e-05 
0.19131 
-4.13304e-05 
0.0746099 
0.0379818 
0.14632 
0.0746096 
-0.0379818 
-0.0746099 
-0.0746096 
-0.14632 
0.0746099 
0.14632 
0.0379818 
0.0746096 
-0.0379818 
-0.0746096 
-0.0746099 
-0.14632 
-0.14632 
-0.0746096 
-0.0746099 
-0.0379818 
0.0746096 
0.14632 
0.0379818 
0.0746099 
0.0746096 
0.0379818 
0.14632 
0.0746099 
-0.14632 
-0.0746099 
-0.0746096 
-0.0379818 
0.705838 
0.692288 
0.55445 
0.543798 
0.554799 
0.544133 
0.38212 
0.374778 
0.544197 
0.512615 
0.374812 
0.353128 
0.692328 
0.652127 
0.543859 
0.512303 
0.65221 
0.586993 
0.512417 
0.461172 
0.512734 
0.46145 
0.353186 
0.317915 
0.461586 
0.392542 
0.317987 
0.270408 
0.587081 
0.499307 
0.461318 
0.392383 
0.705838 
0.55445 
0.692288 
0.543798 
0.692328 
0.543859 
0.652127 
0.512303 
0.544197 
0.374812 
0.512615 
0.353128 
0.554799 
0.38212 
0.544133 
0.374778 
0.65221 
0.512417 
0.586993 
0.461172 
0.587081 
0.461318 
0.499307 
0.392383 
0.461586 
0.317987 
0.392542 
0.270408 
0.512734 
0.353186 
0.46145 
0.317915 
-0.38212 
-0.374778 
-0.554799 
-0.544133 
-0.55445 
-0.543798 
-0.705838 
-0.692288 
-0.543859 
-0.512303 
-0.692328 
-0.652127 
-0.374812 
-0.353128 
-0.544197 
-0.512615 
-0.353186 
-0.317915 
-0.512734 
-0.46145 
-0.512417 
-0.461172 
-0.65221 
-0.586993 
-0.461318 
-0.392383 
-0.587081 
-0.499307 
-0.317987 
-0.270408 
-0.461586 
-0.392542 
-0.499307 
-0.392383 
-0.587081 
-0.461318 
-0.586993 
-0.461172 
-0.65221 
-0.512417 
-0.46145 
-0.317915 
-0.512734 
-0.353186 
-0.392542 
-0.270408 
-0.461586 
-0.317987 
-0.652127 
-0.512303 
-0.692328 
-0.543859 
-0.692288 
-0.543798 
-0.705838 
-0.55445 
-0.544133 
-0.374778 
-0.554799 
-0.38212 
-0.512615 
-0.353128 
-0.544197 
-0.374812 
-0.353186 
-0.512734 
-0.317915 
-0.46145 
-0.317987 
-0.461586 
-0.270408 
-0.392542 
-0.461318 
-0.587081 
-0.392383 
-0.499307 
-0.512417 
-0.65221 
-0.461172 
-0.586993 
-0.38212 
-0.554799 
-0.374778 
-0.544133 
-0.374812 
-0.544197 
-0.353128 
-0.512615 
-0.543859 
-0.692328 
-0.512303 
-0.652127 
-0.55445 
-0.705838 
-0.543798 
-0.692288 
-0.499307 
-0.587081 
-0.392383 
-0.461318 
-0.392542 
-0.461586 
-0.270408 
-0.317987 
-0.46145 
-0.512734 
-0.317915 
-0.353186 
-0.586993 
-0.65221 
-0.461172 
-0.512417 
-0.652127 
-0.692328 
-0.512303 
-0.543859 
-0.512615 
-0.544197 
-0.353128 
-0.374812 
-0.544133 
-0.554799 
-0.374778 
-0.38212 
-0.692288 
-0.705838 
-0.543798 
-0.55445 
0.353128 
0.512615 
0.374812 
0.544197 
0.374778 
0.544133 
0.38212 
0.554799 
0.543798 
0.692288 
0.55445 
0.705838 
0.512303 
0.652127 
0.543859 
0.692328 
0.270408 
0.392542 
0.317987 
0.461586 
0.317915 
0.46145 
0.353186 
0.512734 
0.461172 
0.586993 
0.512417 
0.65221 
0.392383 
0.499307 
0.461318 
0.587081 
0.270408 
0.317987 
0.392542 
0.461586 
0.392383 
0.461318 
0.499307 
0.587081 
0.461172 
0.512417 
0.586993 
0.65221 
0.317915 
0.353186 
0.46145 
0.512734 
0.353128 
0.374812 
0.512615 
0.544197 
0.512303 
0.543859 
0.652127 
0.692328 
0.543798 
0.55445 
0.692288 
0.705838 
0.374778 
0.38212 
0.544133 
0.554799 
0.382088 
0.374734 
0.554766 
0.544091 
0.554416 
0.543756 
0.70581 
0.692253 
0.543816 
0.512248 
0.692293 
0.652084 
0.37477 
0.353061 
0.544154 
0.51256 
0.353124 
0.317807 
0.512679 
0.461385 
0.512362 
0.461101 
0.652167 
0.586946 
0.46125 
0.392319 
0.587034 
0.49926 
0.31788 
0.270327 
0.46152 
0.392486 
0.49926 
0.392348 
0.587051 
0.461293 
0.586962 
0.461147 
0.652191 
0.512401 
0.461425 
0.317897 
0.512718 
0.353175 
0.392511 
0.270378 
0.461561 
0.317971 
0.652108 
0.512287 
0.692319 
0.543851 
0.692279 
0.543791 
0.705838 
0.55445 
0.544125 
0.374773 
0.554799 
0.38212 
0.512599 
0.353117 
0.544189 
0.374807 
0.353124 
0.512679 
0.317807 
0.461385 
0.31788 
0.46152 
0.270327 
0.392486 
0.46125 
0.587034 
0.392319 
0.49926 
0.512362 
0.652167 
0.461101 
0.586946 
0.382088 
0.554766 
0.374734 
0.544091 
0.37477 
0.544154 
0.353061 
0.51256 
0.543816 
0.692293 
0.512248 
0.652084 
0.554416 
0.70581 
0.543756 
0.692253 
0.49926 
0.587051 
0.392348 
0.461293 
0.392511 
0.461561 
0.270378 
0.317971 
0.461425 
0.512718 
0.317897 
0.353175 
0.586962 
0.652191 
0.461147 
0.512401 
0.652108 
0.692319 
0.512287 
0.543851 
0.512599 
0.544189 
0.353117 
0.374807 
0.544125 
0.554799 
0.374773 
0.38212 
0.692279 
0.705838 
0.543791 
0.55445 
0.353077 
0.512574 
0.374774 
0.544161 
0.374739 
0.544097 
0.382088 
0.554766 
0.543762 
0.692257 
0.554416 
0.70581 
0.512264 
0.652092 
0.543823 
0.692297 
0.270358 
0.392503 
0.317939 
0.461542 
0.317864 
0.461407 
0.353138 
0.512693 
0.46113 
0.586954 
0.512377 
0.652175 
0.392339 
0.499263 
0.461277 
0.587043 
0.270358 
0.317939 
0.392503 
0.461542 
0.392339 
0.461277 
0.499263 
0.587043 
0.46113 
0.512377 
0.586954 
0.652175 
0.317864 
0.353138 
0.461407 
0.512693 
0.353077 
0.374774 
0.512574 
0.544161 
0.512264 
0.543823 
0.652092 
0.692297 
0.543762 
0.554416 
0.692257 
0.70581 
0.374739 
0.382088 
0.544097 
0.554766 
-0.353061 
-0.51256 
-0.37477 
-0.544154 
-0.374734 
-0.544091 
-0.382088 
-0.554766 
-0.543756 
-0.692253 
-0.554416 
-0.70581 
-0.512248 
-0.652084 
-0.543816 
-0.692293 
-0.270327 
-0.392486 
-0.31788 
-0.46152 
-0.317807 
-0.461385 
-0.353124 
-0.512679 
-0.461101 
-0.586946 
-0.512362 
-0.652167 
-0.392319 
-0.49926 
-0.46125 
-0.587034 
-0.270378 
-0.317971 
-0.392511 
-0.461561 
-0.392348 
-0.461293 
-0.49926 
-0.587051 
-0.461147 
-0.512401 
-0.586962 
-0.652191 
-0.317897 
-0.353175 
-0.461425 
-0.512718 
-0.353117 
-0.374807 
-0.512599 
-0.544189 
-0.512287 
-0.543851 
-0.652108 
-0.692319 
-0.543791 
-0.55445 
-0.692279 
-0.705838 
-0.374773 
-0.38212 
-0.544125 
-0.554799 
-0.353117 
-0.512599 
-0.374807 
-0.544189 
-0.374773 
-0.544125 
-0.38212 
-0.554799 
-0.543791 
-0.692279 
-0.55445 
-0.705838 
-0.512287 
-0.652108 
-0.543851 
-0.692319 
-0.270378 
-0.392511 
-0.317971 
-0.461561 
-0.317897 
-0.461425 
-0.353175 
-0.512718 
-0.461147 
-0.586962 
-0.512401 
-0.652191 
-0.392348 
-0.49926 
-0.461293 
-0.587051 
-0.270327 
-0.31788 
-0.392486 
-0.46152 
-0.392319 
-0.46125 
-0.49926 
-0.587034 
-0.461101 
-0.512362 
-0.586946 
-0.652167 
-0.317807 
-0.353124 
-0.461385 
-0.512679 
-0.353061 
-0.37477 
-0.51256 
-0.544154 
-0.512248 
-0.543816 
-0.652084 
-0.692293 
-0.543756 
-0.554416 
-0.692253 
-0.70581 
-0.374734 
-0.382088 
-0.544091 
-0.554766 
-0.70581 
-0.692253 
-0.554416 
-0.543756 
-0.554766 
-0.544091 
-0.382088 
-0.374734 
-0.544154 
-0.51256 
-0.37477 
-0.353061 
-0.692293 
-0.652084 
-0.543816 
-0.512248 
-0.652167 
-0.586946 
-0.512362 
-0.461101 
-0.512679 
-0.461385 
-0.353124 
-0.317807 
-0.46152 
-0.392486 
-0.31788 
-0.270327 
-0.587034 
-0.49926 
-0.46125 
-0.392319 
-0.705838 
-0.55445 
-0.692279 
-0.543791 
-0.692319 
-0.543851 
-0.652108 
-0.512287 
-0.544189 
-0.374807 
-0.512599 
-0.353117 
-0.554799 
-0.38212 
-0.544125 
-0.374773 
-0.652191 
-0.512401 
-0.586962 
-0.461147 
-0.587051 
-0.461293 
-0.49926 
-0.392348 
-0.461561 
-0.317971 
-0.392511 
-0.270378 
-0.512718 
-0.353175 
-0.461425 
-0.317897 
-0.353138 
-0.512693 
-0.317864 
-0.461407 
-0.317939 
-0.461542 
-0.270358 
-0.392503 
-0.461277 
-0.587043 
-0.392339 
-0.499263 
-0.512377 
-0.652175 
-0.46113 
-0.586954 
-0.382088 
-0.554766 
-0.374739 
-0.544097 
-0.374774 
-0.544161 
-0.353077 
-0.512574 
-0.543823 
-0.692297 
-0.512264 
-0.652092 
-0.554416 
-0.70581 
-0.543762 
-0.692257 
-0.499263 
-0.587043 
-0.392339 
-0.461277 
-0.392503 
-0.461542 
-0.270358 
-0.317939 
-0.461407 
-0.512693 
-0.317864 
-0.353138 
-0.586954 
-0.652175 
-0.46113 
-0.512377 
-0.652092 
-0.692297 
-0.512264 
-0.543823 
-0.512574 
-0.544161 
-0.353077 
-0.374774 
-0.544097 
-0.554766 
-0.374739 
-0.382088 
-0.692257 
-0.70581 
-0.543762 
-0.554416 
0.353175 
0.512718 
0.317897 
0.461425 
0.317971 
0.461561 
0.270378 
0.392511 
0.461293 
0.587051 
0.392348 
0.49926 
0.512401 
0.652191 
0.461147 
0.586962 
0.38212 
0.554799 
0.374773 
0.544125 
0.374807 
0.544189 
0.353117 
0.512599 
0.543851 
0.692319 
0.512287 
0.652108 
0.55445 
0.705838 
0.543791 
0.692279 
0.49926 
0.587034 
0.392319 
0.46125 
0.392486 
0.46152 
0.270327 
0.31788 
0.461385 
0.512679 
0.317807 
0.353124 
0.586946 
0.652167 
0.461101 
0.512362 
0.652084 
0.692293 
0.512248 
0.543816 
0.51256 
0.544154 
0.353061 
0.37477 
0.544091 
0.554766 
0.374734 
0.382088 
0.692253 
0.70581 
0.543756 
0.554416 
0.38212 
0.374773 
0.554799 
0.544125 
0.55445 
0.543791 
0.705838 
0.692279 
0.543851 
0.512287 
0.692319 
0.652108 
0.374807 
0.353117 
0.544189 
0.512599 
0.353175 
0.317897 
0.512718 
0.461425 
0.512401 
0.461147 
0.652191 
0.586962 
0.461293 
0.392348 
0.587051 
0.49926 
0.317971 
0.270378 
0.461561 
0.392511 
0.49926 
0.392319 
0.587034 
0.46125 
0.586946 
0.461101 
0.652167 
0.512362 
0.461385 
0.317807 
0.512679 
0.353124 
0.392486 
0.270327 
0.46152 
0.31788 
0.652084 
0.512248 
0.692293 
0.543816 
0.692253 
0.543756 
0.70581 
0.554416 
0.544091 
0.374734 
0.554766 
0.382088 
0.51256 
0.353061 
0.544154 
0.37477 
-0.705838 
-0.692279 
-0.55445 
-0.543791 
-0.554799 
-0.544125 
-0.38212 
-0.374773 
-0.544189 
-0.512599 
-0.374807 
-0.353117 
-0.692319 
-0.652108 
-0.543851 
-0.512287 
-0.652191 
-0.586962 
-0.512401 
-0.461147 
-0.512718 
-0.461425 
-0.353175 
-0.317897 
-0.461561 
-0.392511 
-0.317971 
-0.270378 
-0.587051 
-0.49926 
-0.461293 
-0.392348 
-0.70581 
-0.554416 
-0.692253 
-0.543756 
-0.692293 
-0.543816 
-0.652084 
-0.512248 
-0.544154 
-0.37477 
-0.51256 
-0.353061 
-0.554766 
-0.382088 
-0.544091 
-0.374734 
-0.652167 
-0.512362 
-0.586946 
-0.461101 
-0.587034 
-0.46125 
-0.49926 
-0.392319 
-0.46152 
-0.31788 
-0.392486 
-0.270327 
-0.512679 
-0.353124 
-0.461385 
-0.317807 
-0.382088 
-0.374739 
-0.554766 
-0.544097 
-0.554416 
-0.543762 
-0.70581 
-0.692257 
-0.543823 
-0.512264 
-0.692297 
-0.652092 
-0.374774 
-0.353077 
-0.544161 
-0.512574 
-0.353138 
-0.317864 
-0.512693 
-0.461407 
-0.512377 
-0.46113 
-0.652175 
-0.586954 
-0.461277 
-0.392339 
-0.587043 
-0.499263 
-0.317939 
-0.270358 
-0.461542 
-0.392503 
-0.499263 
-0.392339 
-0.587043 
-0.461277 
-0.586954 
-0.46113 
-0.652175 
-0.512377 
-0.461407 
-0.317864 
-0.512693 
-0.353138 
-0.392503 
-0.270358 
-0.461542 
-0.317939 
-0.652092 
-0.512264 
-0.692297 
-0.543823 
-0.692257 
-0.543762 
-0.70581 
-0.554416 
-0.544097 
-0.374739 
-0.554766 
-0.382088 
-0.512574 
-0.353077 
-0.544161 
-0.374774 
0.70581 
0.692257 
0.554416 
0.543762 
0.554766 
0.544097 
0.382088 
0.374739 
0.544161 
0.512574 
0.374774 
0.353077 
0.692297 
0.652092 
0.543823 
0.512264 
0.652175 
0.586954 
0.512377 
0.46113 
0.512693 
0.461407 
0.353138 
0.317864 
0.461542 
0.392503 
0.317939 
0.270358 
0.587043 
0.499263 
0.461277 
0.392339 
0.70581 
0.554416 
0.692257 
0.543762 
0.692297 
0.543823 
0.652092 
0.512264 
0.544161 
0.374774 
0.512574 
0.353077 
0.554766 
0.382088 
0.544097 
0.374739 
0.652175 
0.512377 
0.586954 
0.46113 
0.587043 
0.461277 
0.499263 
0.392339 
0.461542 
0.317939 
0.392503 
0.270358 
0.512693 
0.353138 
0.461407 
0.317864 
0.923114 
0.90436 
0.829643 
0.814569 
0.829908 
0.814343 
0.705985 
0.691893 
0.814379 
0.766706 
0.691918 
0.652322 
0.904557 
0.852588 
0.814362 
0.766531 
0.85257 
0.904548 
0.766511 
0.814352 
0.766686 
0.81437 
0.652304 
0.691909 
0.814334 
0.829908 
0.691884 
0.705985 
0.904351 
0.923115 
0.81456 
0.829642 
0.35339 
0.317987 
0.1801 
0.162262 
0.180201 
0.16213 
-1.99622e-05 
7.71441e-06 
0.16216 
0.137919 
1.80603e-06 
-3.70175e-06 
0.318096 
0.27053 
0.162158 
0.137899 
0.85286 
0.766277 
0.766277 
0.690818 
0.766745 
0.690361 
0.652327 
0.586593 
0.69015 
0.586914 
0.586914 
0.499377 
0.766745 
0.652327 
0.690361 
0.586593 
0.270419 
0.212589 
0.138018 
0.108245 
0.137895 
0.108378 
-6.57521e-06 
-1.21172e-05 
0.108256 
0.0746637 
8.19237e-05 
-0.000111376 
0.212551 
0.146363 
0.108346 
0.0746144 
0.49944 
0.392382 
0.392382 
0.308613 
0.392638 
0.308382 
0.270438 
0.212543 
0.308308 
0.212682 
0.212682 
0.146247 
0.392638 
0.270438 
0.308382 
0.212543 
0.85257 
0.766511 
0.904548 
0.814352 
0.904351 
0.81456 
0.923115 
0.829642 
0.814334 
0.691884 
0.829908 
0.705985 
0.766686 
0.652304 
0.81437 
0.691909 
0.923114 
0.829643 
0.90436 
0.814569 
0.904557 
0.814362 
0.852588 
0.766531 
0.814379 
0.691918 
0.766706 
0.652322 
0.829908 
0.705985 
0.814343 
0.691893 
0.35339 
0.1801 
0.317987 
0.162262 
0.318096 
0.162158 
0.27053 
0.137899 
0.16216 
1.80603e-06 
0.137919 
-3.70175e-06 
0.180201 
-1.99622e-05 
0.16213 
7.71441e-06 
0.270419 
0.138018 
0.212589 
0.108245 
0.212551 
0.108346 
0.146363 
0.0746144 
0.108256 
8.19237e-05 
0.0746637 
-0.000111376 
0.137895 
-6.57521e-06 
0.108378 
-1.21172e-05 
-0.705985 
-0.691893 
-0.829908 
-0.814343 
-0.829643 
-0.814569 
-0.923114 
-0.90436 
-0.814362 
-0.766531 
-0.904557 
-0.852588 
-0.691918 
-0.652322 
-0.814379 
-0.766706 
-0.652304 
-0.691909 
-0.766686 
-0.81437 
-0.766511 
-0.814352 
-0.85257 
-0.904548 
-0.81456 
-0.829642 
-0.904351 
-0.923115 
-0.691884 
-0.705985 
-0.814334 
-0.829908 
-0.652327 
-0.586593 
-0.766745 
-0.690361 
-0.766277 
-0.690818 
-0.85286 
-0.766277 
-0.690361 
-0.586593 
-0.766745 
-0.652327 
-0.586914 
-0.499377 
-0.69015 
-0.586914 
1.99622e-05 
-7.71441e-06 
-0.180201 
-0.16213 
-0.1801 
-0.162262 
-0.35339 
-0.317987 
-0.162158 
-0.137899 
-0.318096 
-0.27053 
-1.80603e-06 
3.70175e-06 
-0.16216 
-0.137919 
-0.270438 
-0.212543 
-0.392638 
-0.308382 
-0.392382 
-0.308613 
-0.49944 
-0.392382 
-0.308382 
-0.212543 
-0.392638 
-0.270438 
-0.212682 
-0.146247 
-0.308308 