# vtk DataFile Version 3.0
Arquivo gerado por PZ
ASCII

DATASET UNSTRUCTURED_GRID
POINTS 64 float
-1 -1 0
-1 -0.5 0
-0.5 -1 0
-0.5 -0.5 0
-0.5 -1 0
-0.5 -0.5 0
0 -1 0
0 -0.5 0
-0.5 -0.5 0
-0.5 0 0
0 -0.5 0
0 0 0
-1 -0.5 0
-1 0 0
-0.5 -0.5 0
-0.5 0 0
0 -1 0
0 -0.5 0
0.5 -1 0
0.5 -0.5 0
0.5 -1 0
0.5 -0.5 0
1 -1 0
1 -0.5 0
0.5 -0.5 0
0.5 0 0
1 -0.5 0
1 0 0
0 -0.5 0
0 0 0
0.5 -0.5 0
0.5 0 0
-1 0 0
-1 0.5 0
-0.5 0 0
-0.5 0.5 0
-0.5 0 0
-0.5 0.5 0
0 0 0
0 0.5 0
-0.5 0.5 0
-0.5 1 0
0 0.5 0
0 1 0
-1 0.5 0
-1 1 0
-0.5 0.5 0
-0.5 1 0
0 0 0
0 0.5 0
0.5 0 0
0.5 0.5 0
0.5 0 0
0.5 0.5 0
1 0 0
1 0.5 0
0.5 0.5 0
0.5 1 0
1 0.5 0
1 1 0
0 0.5 0
0 1 0
0.5 0.5 0
0.5 1 0

CELLS 16 80
4 0 2 3 1
4 4 6 7 5
4 8 10 11 9
4 12 14 15 13
4 16 18 19 17
4 20 22 23 21
4 24 26 27 25
4 28 30 31 29
4 32 34 35 33
4 36 38 39 37
4 40 42 43 41
4 44 46 47 45
4 48 50 51 49
4 52 54 55 53
4 56 58 59 57
4 60 62 63 61

CELL_TYPES 16
9
9
9
9
9
9
9
9
9
9
9
9
9
9
9
9

POINT_DATA 64
SCALARS Pressure float
LOOKUP_TABLE default
1.52331e-18 
3.14113e-12 
3.14113e-12 
0.999881 
3.14113e-12 
0.999881 
0 
2.90645e-16 
0.999881 
2.30238e-16 
2.90645e-16 
3.73065e-17 
3.14113e-12 
0 
0.999881 
2.30238e-16 
0 
2.90645e-16 
-3.14113e-12 
-0.999881 
-3.14113e-12 
-0.999881 
-1.52331e-18 
-3.14113e-12 
-0.999881 
1.61999e-16 
-3.14113e-12 
0 
2.90645e-16 
3.73065e-17 
-0.999881 
1.61999e-16 
0 
-3.14113e-12 
2.30238e-16 
-0.999881 
2.30238e-16 
-0.999881 
3.73065e-17 
-1.1478e-16 
-0.999881 
-3.14113e-12 
-1.1478e-16 
0 
-3.14113e-12 
-1.52331e-18 
-0.999881 
-3.14113e-12 
3.73065e-17 
-1.1478e-16 
1.61999e-16 
0.999881 
1.61999e-16 
0.999881 
0 
3.14113e-12 
0.999881 
3.14113e-12 
3.14113e-12 
1.52331e-18 
-1.1478e-16 
0 
0.999881 
3.14113e-12 

SCALARS ExactPressure float
LOOKUP_TABLE default
0 
1.22461e-16 
1.22461e-16 
1 
1.22461e-16 
1 
0 
0 
1 
0 
0 
0 
1.22461e-16 
0 
1 
0 
0 
0 
-1.22461e-16 
-1 
-1.22461e-16 
-1 
0 
-1.22461e-16 
-1 
0 
-1.22461e-16 
0 
0 
0 
-1 
0 
0 
-1.22461e-16 
0 
-1 
0 
-1 
0 
0 
-1 
-1.22461e-16 
0 
0 
-1.22461e-16 
0 
-1 
-1.22461e-16 
0 
0 
0 
1 
0 
1 
0 
1.22461e-16 
1 
1.22461e-16 
1.22461e-16 
0 
0 
0 
1 
1.22461e-16 

SCALARS POrder float
LOOKUP_TABLE default
3 
3 
3 
3 
3 
3 
3 
3 
3 
3 
3 
3 
3 
3 
3 
3 
3 
3 
3 
3 
3 
3 
3 
3 
3 
3 
3 
3 
3 
3 
3 
3 
3 
3 
3 
3 
3 
3 
3 
3 
3 
3 
3 
3 
3 
3 
3 
3 
3 
3 
3 
3 
3 
3 
3 
3 
3 
3 
3 
3 
3 
3 
3 
3 

VECTORS Flux float
1.00625e-11 1.00625e-11 0 
3.20309 -2.43919e-13 0 
-2.43919e-13 3.20309 0 
-0.0776639 -0.0776639 0 
2.43913e-13 3.20309 0 
0.0776639 -0.0776639 0 
-1.00625e-11 3.82522e-16 0 
-3.20309 1.43186e-15 0 
0.0776639 0.0776639 0 
-1.94658e-15 -3.20309 0 
-3.20309 -1.34337e-15 0 
-6.9277e-16 -5.89666e-16 0 
3.20309 2.43913e-13 0 
2.17666e-16 -1.00625e-11 0 
-0.0776639 0.0776639 0 
1.58965e-15 -3.20309 0 
-1.00625e-11 3.82522e-16 0 
-3.20309 1.43186e-15 0 
2.43913e-13 -3.20309 0 
0.0776639 0.0776639 0 
-2.43919e-13 -3.20309 0 
-0.0776639 0.0776639 0 
1.00625e-11 -1.00625e-11 0 
3.20309 2.43919e-13 0 
-0.0776639 -0.0776639 0 
-1.79044e-15 3.20309 0 
3.20309 -2.43913e-13 0 
-8.20269e-16 1.00625e-11 0 
-3.20309 -1.34337e-15 0 
3.29235e-16 -5.89666e-16 0 
0.0776639 -0.0776639 0 
6.21011e-16 3.20309 0 
2.17666e-16 -1.00625e-11 0 
-3.20309 2.43913e-13 0 
1.58965e-15 -3.20309 0 
0.0776639 0.0776639 0 
-1.94658e-15 -3.20309 0 
-0.0776639 0.0776639 0 
-6.9277e-16 1.35684e-16 0 
3.20309 -1.31371e-15 0 
-0.0776639 -0.0776639 0 
-2.43913e-13 3.20309 0 
3.20309 1.04953e-15 0 
1.00625e-11 -3.96176e-16 0 
-3.20309 -2.43919e-13 0 
-1.00625e-11 1.00625e-11 0 
0.0776639 -0.0776639 0 
2.43919e-13 3.20309 0 
3.29235e-16 1.35684e-16 0 
3.20309 -1.31371e-15 0 
6.21011e-16 3.20309 0 
-0.0776639 -0.0776639 0 
-1.79044e-15 3.20309 0 
0.0776639 -0.0776639 0 
-8.20269e-16 1.00625e-11 0 
-3.20309 -2.43913e-13 0 
0.0776639 0.0776639 0 
2.43919e-13 -3.20309 0 
-3.20309 2.43919e-13 0 
-1.00625e-11 -1.00625e-11 0 
3.20309 1.04953e-15 0 
1.00625e-11 -3.96176e-16 0 
-0.0776639 0.0776639 0 
-2.43913e-13 -3.20309 0 

