# vtk DataFile Version 3.0
Arquivo gerado por PZ
ASCII

DATASET UNSTRUCTURED_GRID
POINTS 64 float
-1 -1 0
-1 -0.5 0
-0.5 -1 0
-0.5 -0.5 0
-0.5 -1 0
-0.5 -0.5 0
0 -1 0
0 -0.5 0
-0.5 -0.5 0
-0.5 0 0
0 -0.5 0
0 0 0
-1 -0.5 0
-1 0 0
-0.5 -0.5 0
-0.5 0 0
0 -1 0
0 -0.5 0
0.5 -1 0
0.5 -0.5 0
0.5 -1 0
0.5 -0.5 0
1 -1 0
1 -0.5 0
0.5 -0.5 0
0.5 0 0
1 -0.5 0
1 0 0
0 -0.5 0
0 0 0
0.5 -0.5 0
0.5 0 0
-1 0 0
-1 0.5 0
-0.5 0 0
-0.5 0.5 0
-0.5 0 0
-0.5 0.5 0
0 0 0
0 0.5 0
-0.5 0.5 0
-0.5 1 0
0 0.5 0
0 1 0
-1 0.5 0
-1 1 0
-0.5 0.5 0
-0.5 1 0
0 0 0
0 0.5 0
0.5 0 0
0.5 0.5 0
0.5 0 0
0.5 0.5 0
1 0 0
1 0.5 0
0.5 0.5 0
0.5 1 0
1 0.5 0
1 1 0
0 0.5 0
0 1 0
0.5 0.5 0
0.5 1 0

CELLS 16 80
4 0 2 3 1
4 4 6 7 5
4 8 10 11 9
4 12 14 15 13
4 16 18 19 17
4 20 22 23 21
4 24 26 27 25
4 28 30 31 29
4 32 34 35 33
4 36 38 39 37
4 40 42 43 41
4 44 46 47 45
4 48 50 51 49
4 52 54 55 53
4 56 58 59 57
4 60 62 63 61

CELL_TYPES 16
9
9
9
9
9
9
9
9
9
9
9
9
9
9
9
9

POINT_DATA 64
SCALARS Pressure float
LOOKUP_TABLE default
7.35716e-08 
0.000269686 
0.000269686 
1.00043 
0.000269686 
1.00043 
7.35716e-08 
0.000269686 
1.00043 
0.000269686 
0.000269686 
7.35716e-08 
0.000269686 
7.35716e-08 
1.00043 
0.000269686 
-7.35716e-08 
-0.000269686 
-0.000269686 
-1.00043 
-0.000269686 
-1.00043 
-7.35716e-08 
-0.000269686 
-1.00043 
-0.000269686 
-0.000269686 
-7.35716e-08 
-0.000269686 
-7.35716e-08 
-1.00043 
-0.000269686 
-7.35716e-08 
-0.000269686 
-0.000269686 
-1.00043 
-0.000269686 
-1.00043 
-7.35716e-08 
-0.000269686 
-1.00043 
-0.000269686 
-0.000269686 
-7.35716e-08 
-0.000269686 
-7.35716e-08 
-1.00043 
-0.000269686 
7.35716e-08 
0.000269686 
0.000269686 
1.00043 
0.000269686 
1.00043 
7.35716e-08 
0.000269686 
1.00043 
0.000269686 
0.000269686 
7.35716e-08 
0.000269686 
7.35716e-08 
1.00043 
0.000269686 

SCALARS ExactPressure float
LOOKUP_TABLE default
0 
1.22461e-16 
1.22461e-16 
1 
1.22461e-16 
1 
0 
0 
1 
0 
0 
0 
1.22461e-16 
0 
1 
0 
0 
0 
-1.22461e-16 
-1 
-1.22461e-16 
-1 
0 
-1.22461e-16 
-1 
0 
-1.22461e-16 
0 
0 
0 
-1 
0 
0 
-1.22461e-16 
0 
-1 
0 
-1 
0 
0 
-1 
-1.22461e-16 
0 
0 
-1.22461e-16 
0 
-1 
-1.22461e-16 
0 
0 
0 
1 
0 
1 
0 
1.22461e-16 
1 
1.22461e-16 
1.22461e-16 
0 
0 
0 
1 
1.22461e-16 

SCALARS POrder float
LOOKUP_TABLE default
4 
4 
4 
4 
4 
4 
4 
4 
4 
4 
4 
4 
4 
4 
4 
4 
4 
4 
4 
4 
4 
4 
4 
4 
4 
4 
4 
4 
4 
4 
4 
4 
4 
4 
4 
4 
4 
4 
4 
4 
4 
4 
4 
4 
4 
4 
4 
4 
4 
4 
4 
4 
4 
4 
4 
4 
4 
4 
4 
4 
4 
4 
4 
4 

VECTORS Flux float
0.000846575 0.000846575 0 
3.14071 -2.52806e-06 0 
-2.52806e-06 3.14071 0 
-0.00932585 -0.00932585 0 
2.52806e-06 3.14071 0 
0.00932585 -0.00932585 0 
-0.000846575 0.000846575 0 
-3.14071 -2.52806e-06 0 
0.00932585 0.00932585 0 
2.52806e-06 -3.14071 0 
-3.14071 2.52806e-06 0 
-0.000846575 -0.000846575 0 
3.14071 2.52806e-06 0 
0.000846575 -0.000846575 0 
-0.00932585 0.00932585 0 
-2.52806e-06 -3.14071 0 
-0.000846575 -0.000846575 0 
-3.14071 2.52806e-06 0 
2.52806e-06 -3.14071 0 
0.00932585 0.00932585 0 
-2.52806e-06 -3.14071 0 
-0.00932585 0.00932585 0 
0.000846575 -0.000846575 0 
3.14071 2.52806e-06 0 
-0.00932585 -0.00932585 0 
-2.52806e-06 3.14071 0 
3.14071 -2.52806e-06 0 
0.000846575 0.000846575 0 
-3.14071 -2.52806e-06 0 
-0.000846575 0.000846575 0 
0.00932585 -0.00932585 0 
2.52806e-06 3.14071 0 
-0.000846575 -0.000846575 0 
-3.14071 2.52806e-06 0 
2.52806e-06 -3.14071 0 
0.00932585 0.00932585 0 
-2.52806e-06 -3.14071 0 
-0.00932585 0.00932585 0 
0.000846575 -0.000846575 0 
3.14071 2.52806e-06 0 
-0.00932585 -0.00932585 0 
-2.52806e-06 3.14071 0 
3.14071 -2.52806e-06 0 
0.000846575 0.000846575 0 
-3.14071 -2.52806e-06 0 
-0.000846575 0.000846575 0 
0.00932585 -0.00932585 0 
2.52806e-06 3.14071 0 
0.000846575 0.000846575 0 
3.14071 -2.52806e-06 0 
-2.52806e-06 3.14071 0 
-0.00932585 -0.00932585 0 
2.52806e-06 3.14071 0 
0.00932585 -0.00932585 0 
-0.000846575 0.000846575 0 
-3.14071 -2.52806e-06 0 
0.00932585 0.00932585 0 
2.52806e-06 -3.14071 0 
-3.14071 2.52806e-06 0 
-0.000846575 -0.000846575 0 
3.14071 2.52806e-06 0 
0.000846575 -0.000846575 0 
-0.00932585 0.00932585 0 
-2.52806e-06 -3.14071 0 

