# vtk DataFile Version 3.0
Arquivo gerado por PZ
ASCII

DATASET UNSTRUCTURED_GRID
POINTS 64 float
-1 -1 0
-1 -0.5 0
-0.5 -1 0
-0.5 -0.5 0
-0.5 -1 0
-0.5 -0.5 0
0 -1 0
0 -0.5 0
-0.5 -0.5 0
-0.5 0 0
0 -0.5 0
0 0 0
-1 -0.5 0
-1 0 0
-0.5 -0.5 0
-0.5 0 0
0 -1 0
0 -0.5 0
0.5 -1 0
0.5 -0.5 0
0.5 -1 0
0.5 -0.5 0
1 -1 0
1 -0.5 0
0.5 -0.5 0
0.5 0 0
1 -0.5 0
1 0 0
0 -0.5 0
0 0 0
0.5 -0.5 0
0.5 0 0
-1 0 0
-1 0.5 0
-0.5 0 0
-0.5 0.5 0
-0.5 0 0
-0.5 0.5 0
0 0 0
0 0.5 0
-0.5 0.5 0
-0.5 1 0
0 0.5 0
0 1 0
-1 0.5 0
-1 1 0
-0.5 0.5 0
-0.5 1 0
0 0 0
0 0.5 0
0.5 0 0
0.5 0.5 0
0.5 0 0
0.5 0.5 0
1 0 0
1 0.5 0
0.5 0.5 0
0.5 1 0
1 0.5 0
1 1 0
0 0.5 0
0 1 0
0.5 0.5 0
0.5 1 0

CELLS 16 80
4 0 2 3 1
4 4 6 7 5
4 8 10 11 9
4 12 14 15 13
4 16 18 19 17
4 20 22 23 21
4 24 26 27 25
4 28 30 31 29
4 32 34 35 33
4 36 38 39 37
4 40 42 43 41
4 44 46 47 45
4 48 50 51 49
4 52 54 55 53
4 56 58 59 57
4 60 62 63 61

CELL_TYPES 16
9
9
9
9
9
9
9
9
9
9
9
9
9
9
9
9

POINT_DATA 64
SCALARS Pressure float
LOOKUP_TABLE default
3.05118e-16 
3.14601e-12 
3.14601e-12 
1.01041 
3.14601e-12 
1.01041 
0 
-2.90292e-16 
1.01041 
-1.36444e-16 
-2.90292e-16 
-2.65162e-16 
3.14601e-12 
0 
1.01041 
-1.36444e-16 
0 
-2.90292e-16 
-3.14601e-12 
-1.01041 
-3.14601e-12 
-1.01041 
-3.05118e-16 
-3.14601e-12 
-1.01041 
-3.03763e-16 
-3.14601e-12 
0 
-2.90292e-16 
-2.65162e-16 
-1.01041 
-3.03763e-16 
0 
-3.14601e-12 
-1.36444e-16 
-1.01041 
-1.36444e-16 
-1.01041 
-2.65162e-16 
-2.50206e-16 
-1.01041 
-3.14601e-12 
-2.50206e-16 
0 
-3.14601e-12 
-3.05118e-16 
-1.01041 
-3.14601e-12 
-2.65162e-16 
-2.50206e-16 
-3.03763e-16 
1.01041 
-3.03763e-16 
1.01041 
0 
3.14601e-12 
1.01041 
3.14601e-12 
3.14601e-12 
3.05118e-16 
-2.50206e-16 
0 
1.01041 
3.14601e-12 

SCALARS ExactPressure float
LOOKUP_TABLE default
0 
1.22461e-16 
1.22461e-16 
1 
1.22461e-16 
1 
0 
0 
1 
0 
0 
0 
1.22461e-16 
0 
1 
0 
0 
0 
-1.22461e-16 
-1 
-1.22461e-16 
-1 
0 
-1.22461e-16 
-1 
0 
-1.22461e-16 
0 
0 
0 
-1 
0 
0 
-1.22461e-16 
0 
-1 
0 
-1 
0 
0 
-1 
-1.22461e-16 
0 
0 
-1.22461e-16 
0 
-1 
-1.22461e-16 
0 
0 
0 
1 
0 
1 
0 
1.22461e-16 
1 
1.22461e-16 
1.22461e-16 
0 
0 
0 
1 
1.22461e-16 

SCALARS POrder float
LOOKUP_TABLE default
2 
2 
2 
2 
2 
2 
2 
2 
2 
2 
2 
2 
2 
2 
2 
2 
2 
2 
2 
2 
2 
2 
2 
2 
2 
2 
2 
2 
2 
2 
2 
2 
2 
2 
2 
2 
2 
2 
2 
2 
2 
2 
2 
2 
2 
2 
2 
2 
2 
2 
2 
2 
2 
2 
2 
2 
2 
2 
2 
2 
2 
2 
2 
2 

VECTORS Flux float
1.14135e-11 1.14135e-11 0 
3.66435 1.16934e-12 0 
1.16934e-12 3.66435 0 
0.377309 0.377309 0 
-1.16843e-12 3.66435 0 
-0.377309 0.377309 0 
-1.14156e-11 -3.26798e-16 0 
-3.66435 -8.34369e-16 0 
-0.377309 -0.377309 0 
9.89926e-17 -3.66435 0 
-3.66435 7.61192e-16 0 
-6.13864e-16 -6.60673e-16 0 
3.66435 -1.16843e-12 0 
-1.04845e-17 -1.14156e-11 0 
0.377309 -0.377309 0 
-5.35292e-16 -3.66435 0 
-1.14156e-11 -3.26798e-16 0 
-3.66435 -8.34369e-16 0 
-1.16843e-12 -3.66435 0 
-0.377309 -0.377309 0 
1.16934e-12 -3.66435 0 
0.377309 -0.377309 0 
1.14135e-11 -1.14135e-11 0 
3.66435 -1.16934e-12 0 
0.377309 0.377309 0 
4.5911e-16 3.66435 0 
3.66435 1.16843e-12 0 
7.55943e-16 1.14156e-11 0 
-3.66435 7.61192e-16 0 
3.35393e-16 -6.60673e-16 0 
-0.377309 0.377309 0 
-4.89797e-16 3.66435 0 
-1.04845e-17 -1.14156e-11 0 
-3.66435 -1.16843e-12 0 
-5.35292e-16 -3.66435 0 
-0.377309 -0.377309 0 
9.89926e-17 -3.66435 0 
0.377309 -0.377309 0 
-6.13864e-16 4.37175e-16 0 
3.66435 -3.77352e-16 0 
0.377309 0.377309 0 
1.16843e-12 3.66435 0 
3.66435 6.48331e-16 0 
1.14156e-11 3.52495e-16 0 
-3.66435 1.16934e-12 0 
-1.14135e-11 1.14135e-11 0 
-0.377309 0.377309 0 
-1.16934e-12 3.66435 0 
3.35393e-16 4.37175e-16 0 
3.66435 -3.77352e-16 0 
-4.89797e-16 3.66435 0 
0.377309 0.377309 0 
4.5911e-16 3.66435 0 
-0.377309 0.377309 0 
7.55943e-16 1.14156e-11 0 
-3.66435 1.16843e-12 0 
-0.377309 -0.377309 0 
-1.16934e-12 -3.66435 0 
-3.66435 -1.16934e-12 0 
-1.14135e-11 -1.14135e-11 0 
3.66435 6.48331e-16 0 
1.14156e-11 3.52495e-16 0 
0.377309 -0.377309 0 
1.16843e-12 -3.66435 0 

