# vtk DataFile Version 3.0
Arquivo gerado por PZ
ASCII

DATASET UNSTRUCTURED_GRID
POINTS 64 float
-1 -1 0
-1 -0.5 0
-0.5 -1 0
-0.5 -0.5 0
-0.5 -1 0
-0.5 -0.5 0
0 -1 0
0 -0.5 0
-0.5 -0.5 0
-0.5 0 0
0 -0.5 0
0 0 0
-1 -0.5 0
-1 0 0
-0.5 -0.5 0
-0.5 0 0
0 -1 0
0 -0.5 0
0.5 -1 0
0.5 -0.5 0
0.5 -1 0
0.5 -0.5 0
1 -1 0
1 -0.5 0
0.5 -0.5 0
0.5 0 0
1 -0.5 0
1 0 0
0 -0.5 0
0 0 0
0.5 -0.5 0
0.5 0 0
-1 0 0
-1 0.5 0
-0.5 0 0
-0.5 0.5 0
-0.5 0 0
-0.5 0.5 0
0 0 0
0 0.5 0
-0.5 0.5 0
-0.5 1 0
0 0.5 0
0 1 0
-1 0.5 0
-1 1 0
-0.5 0.5 0
-0.5 1 0
0 0 0
0 0.5 0
0.5 0 0
0.5 0.5 0
0.5 0 0
0.5 0.5 0
1 0 0
1 0.5 0
0.5 0.5 0
0.5 1 0
1 0.5 0
1 1 0
0 0.5 0
0 1 0
0.5 0.5 0
0.5 1 0

CELLS 16 80
4 0 2 3 1
4 4 6 7 5
4 8 10 11 9
4 12 14 15 13
4 16 18 19 17
4 20 22 23 21
4 24 26 27 25
4 28 30 31 29
4 32 34 35 33
4 36 38 39 37
4 40 42 43 41
4 44 46 47 45
4 48 50 51 49
4 52 54 55 53
4 56 58 59 57
4 60 62 63 61

CELL_TYPES 16
9
9
9
9
9
9
9
9
9
9
9
9
9
9
9
9

POINT_DATA 64
SCALARS Pressure float
LOOKUP_TABLE default
0 
3.14159e-12 
3.14159e-12 
1 
3.14159e-12 
1 
0 
-6.00834e-17 
1 
1.79658e-16 
-6.00834e-17 
9.01469e-17 
3.14159e-12 
0 
1 
1.79658e-16 
0 
-6.00834e-17 
-3.14159e-12 
-1 
-3.14159e-12 
-1 
0 
-3.14159e-12 
-1 
-1.18874e-16 
-3.14159e-12 
0 
-6.00834e-17 
9.01469e-17 
-1 
-1.18874e-16 
0 
-3.14159e-12 
1.79658e-16 
-1 
1.79658e-16 
-1 
9.01469e-17 
1.49579e-16 
-1 
-3.14159e-12 
1.49579e-16 
0 
-3.14159e-12 
0 
-1 
-3.14159e-12 
9.01469e-17 
1.49579e-16 
-1.18874e-16 
1 
-1.18874e-16 
1 
0 
3.14159e-12 
1 
3.14159e-12 
3.14159e-12 
0 
1.49579e-16 
0 
1 
3.14159e-12 

SCALARS ExactPressure float
LOOKUP_TABLE default
0 
1.22461e-16 
1.22461e-16 
1 
1.22461e-16 
1 
0 
0 
1 
0 
0 
0 
1.22461e-16 
0 
1 
0 
0 
0 
-1.22461e-16 
-1 
-1.22461e-16 
-1 
0 
-1.22461e-16 
-1 
0 
-1.22461e-16 
0 
0 
0 
-1 
0 
0 
-1.22461e-16 
0 
-1 
0 
-1 
0 
0 
-1 
-1.22461e-16 
0 
0 
-1.22461e-16 
0 
-1 
-1.22461e-16 
0 
0 
0 
1 
0 
1 
0 
1.22461e-16 
1 
1.22461e-16 
1.22461e-16 
0 
0 
0 
1 
1.22461e-16 

SCALARS POrder float
LOOKUP_TABLE default
5 
5 
5 
5 
5 
5 
5 
5 
5 
5 
5 
5 
5 
5 
5 
5 
5 
5 
5 
5 
5 
5 
5 
5 
5 
5 
5 
5 
5 
5 
5 
5 
5 
5 
5 
5 
5 
5 
5 
5 
5 
5 
5 
5 
5 
5 
5 
5 
5 
5 
5 
5 
5 
5 
5 
5 
5 
5 
5 
5 
5 
5 
5 
5 

VECTORS Flux float
9.8676e-12 9.8676e-12 0 
3.14095 2.31477e-15 0 
2.31477e-15 3.14095 0 
0.000736812 0.000736812 0 
-2.31477e-15 3.14095 0 
-0.000736812 0.000736812 0 
-9.8676e-12 -4.93416e-15 0 
-3.14095 1.56971e-15 0 
-0.000736812 -0.000736812 0 
-6.96134e-15 -3.14095 0 
-3.14095 6.43744e-15 0 
-9.12471e-15 -5.15666e-15 0 
3.14095 -2.31477e-15 0 
2.53471e-15 -9.8676e-12 0 
0.000736812 -0.000736812 0 
1.75399e-15 -3.14095 0 
-9.8676e-12 -4.93416e-15 0 
-3.14095 1.56971e-15 0 
-2.31477e-15 -3.14095 0 
-0.000736812 -0.000736812 0 
2.31477e-15 -3.14095 0 
0.000736812 -0.000736812 0 
9.8676e-12 -9.8676e-12 0 
3.14095 -2.31477e-15 0 
0.000736812 0.000736812 0 
3.31788e-15 3.14095 0 
3.14095 2.31477e-15 0 
-3.95034e-15 9.8676e-12 0 
-3.14095 6.43744e-15 0 
6.86718e-15 -5.15666e-15 0 
-0.000736812 0.000736812 0 
-7.98109e-15 3.14095 0 
2.53471e-15 -9.8676e-12 0 
-3.14095 -2.31477e-15 0 
1.75399e-15 -3.14095 0 
-0.000736812 -0.000736812 0 
-6.96134e-15 -3.14095 0 
0.000736812 -0.000736812 0 
-9.12471e-15 5.61425e-15 0 
3.14095 2.62678e-15 0 
0.000736812 0.000736812 0 
2.31477e-15 3.14095 0 
3.14095 2.57299e-15 0 
9.8676e-12 -2.66818e-15 0 
-3.14095 2.31477e-15 0 
-9.8676e-12 9.8676e-12 0 
-0.000736812 0.000736812 0 
-2.31477e-15 3.14095 0 
6.86718e-15 5.61425e-15 0 
3.14095 2.62678e-15 0 
-7.98109e-15 3.14095 0 
0.000736812 0.000736812 0 
3.31788e-15 3.14095 0 
-0.000736812 0.000736812 0 
-3.95034e-15 9.8676e-12 0 
-3.14095 2.31477e-15 0 
-0.000736812 -0.000736812 0 
-2.31477e-15 -3.14095 0 
-3.14095 -2.31477e-15 0 
-9.8676e-12 -9.8676e-12 0 
3.14095 2.57299e-15 0 
9.8676e-12 -2.66818e-15 0 
0.000736812 -0.000736812 0 
2.31477e-15 -3.14095 0 

